version 2
run Assignment1-0-20140515-12:52:44-2774
attr configname Assignment1
attr datetime 20140515-12:52:44
attr experiment Assignment1
attr inifile assignment1.ini
attr iterationvars ""
attr iterationvars2 $repetition=0
attr measurement ""
attr network assignment1
attr processid 2774
attr repetition 0
attr replication #0
attr resultdir results
attr runnumber 0
attr seedset 0

vector 7  assignment1.client1.wlan[0].mgmt  dataQueueLen:vector  ETV
attr interpolationmode  sample-hold
attr title  "data queue length, vector"
vector 25  assignment1.client2.wlan[0].mgmt  dataQueueLen:vector  ETV
attr interpolationmode  sample-hold
attr title  "data queue length, vector"
vector 35  assignment1.ap.wlan[0].mgmt  dataQueueLen:vector  ETV
attr interpolationmode  sample-hold
attr title  "data queue length, vector"
vector 46  assignment1.client1.wlan[0].mac  RadioState  ETV
attr enum  "IDLE=0, OFF=4, RECV=1, SLEEP=3, TRANSMIT=2"
attr enumname  RadioState
vector 45  assignment1.client1.wlan[0].mac  State  ETV
attr enum  "BACKOFF=3, DEFER=1, IDLE=0, RECEIVE=8, WAITACK=4, WAITAIFS=2, WAITCTS=6, WAITMULTICAST=5, WAITSIFS=7"
attr enumname  Ieee80211Mac
vector 52  assignment1.client2.wlan[0].mac  RadioState  ETV
attr enum  "IDLE=0, OFF=4, RECV=1, SLEEP=3, TRANSMIT=2"
attr enumname  RadioState
vector 51  assignment1.client2.wlan[0].mac  State  ETV
attr enum  "BACKOFF=3, DEFER=1, IDLE=0, RECEIVE=8, WAITACK=4, WAITAIFS=2, WAITCTS=6, WAITMULTICAST=5, WAITSIFS=7"
attr enumname  Ieee80211Mac
vector 58  assignment1.ap.wlan[0].mac  RadioState  ETV
attr enum  "IDLE=0, OFF=4, RECV=1, SLEEP=3, TRANSMIT=2"
attr enumname  RadioState
vector 57  assignment1.ap.wlan[0].mac  State  ETV
attr enum  "BACKOFF=3, DEFER=1, IDLE=0, RECEIVE=8, WAITACK=4, WAITAIFS=2, WAITCTS=6, WAITMULTICAST=5, WAITSIFS=7"
attr enumname  Ieee80211Mac
vector 13  assignment1.client1.wlan[0].radio  bitrate:vector  ETV
attr interpolationmode  sample-hold
attr title  "tx bitrate, vector"
attr unit  bps
vector 15  assignment1.client1.wlan[0].radio  radioState:vector  ETV
attr interpolationmode  sample-hold
attr title  "radio state (enum), vector"
vector 14  assignment1.client1.wlan[0].radio  channelNo:vector  ETV
attr interpolationmode  sample-hold
attr title  "channel no, vector"
vector 31  assignment1.client2.wlan[0].radio  bitrate:vector  ETV
attr interpolationmode  sample-hold
attr title  "tx bitrate, vector"
attr unit  bps
vector 33  assignment1.client2.wlan[0].radio  radioState:vector  ETV
attr interpolationmode  sample-hold
attr title  "radio state (enum), vector"
vector 32  assignment1.client2.wlan[0].radio  channelNo:vector  ETV
attr interpolationmode  sample-hold
attr title  "channel no, vector"
vector 41  assignment1.ap.wlan[0].radio  bitrate:vector  ETV
attr interpolationmode  sample-hold
attr title  "tx bitrate, vector"
attr unit  bps
vector 43  assignment1.ap.wlan[0].radio  radioState:vector  ETV
attr interpolationmode  sample-hold
attr title  "radio state (enum), vector"
vector 42  assignment1.ap.wlan[0].radio  channelNo:vector  ETV
attr interpolationmode  sample-hold
attr title  "channel no, vector"
vector 102  assignment1.client2.tcp  tcpRcvQueueBytes  ETV
vector 89  assignment1.client2.tcp  "advertised window"  ETV
vector 88  assignment1.client2.tcp  "receive window"  ETV
vector 91  assignment1.client2.tcp  "sent ack"  ETV
vector 20  assignment1.client2.networkLayer.arp  sentReq:vector  ETV
attr title  "ARP request sent, vector"
vector 29  assignment1.client2.wlan[0].mac  rcvdPkFromHL:vector(packetBytes)  ETV
attr interpolationmode  none
attr source  packetReceivedFromUpper
attr title  "packets received from higher layer, vector(packetBytes)"
vector 28  assignment1.client2.wlan[0].mac  sentDownPk:vector(packetBytes)  ETV
attr interpolationmode  none
attr source  packetSentToLower
attr title  "packets sent to lower layer, vector(packetBytes)"
vector 50  assignment1.client1.wlan[0].radio  snirVector  ETV
vector 12  assignment1.client1.wlan[0].mac  rcvdPkFromLL:vector(packetBytes)  ETV
attr interpolationmode  none
attr source  packetReceivedFromLower
attr title  "packets received from lower layer, vector(packetBytes)"
vector 62  assignment1.ap.wlan[0].radio  snirVector  ETV
vector 40  assignment1.ap.wlan[0].mac  rcvdPkFromLL:vector(packetBytes)  ETV
attr interpolationmode  none
attr source  packetReceivedFromLower
attr title  "packets received from lower layer, vector(packetBytes)"
vector 37  assignment1.ap.wlan[0].mac  passedUpPk:vector(packetBytes)  ETV
attr interpolationmode  none
attr source  packetSentToUpper
attr title  "packets passed to higher layer, vector(packetBytes)"
vector 39  assignment1.ap.wlan[0].mac  rcvdPkFromHL:vector(packetBytes)  ETV
attr interpolationmode  none
attr source  packetReceivedFromUpper
attr title  "packets received from higher layer, vector(packetBytes)"
vector 38  assignment1.ap.wlan[0].mac  sentDownPk:vector(packetBytes)  ETV
attr interpolationmode  none
attr source  packetSentToLower
attr title  "packets sent to lower layer, vector(packetBytes)"
vector 56  assignment1.client2.wlan[0].radio  snirVector  ETV
vector 30  assignment1.client2.wlan[0].mac  rcvdPkFromLL:vector(packetBytes)  ETV
attr interpolationmode  none
attr source  packetReceivedFromLower
attr title  "packets received from lower layer, vector(packetBytes)"
vector 55  assignment1.client2.wlan[0].mac  "Mac delay AC0"  ETV
vector 9  assignment1.client1.wlan[0].mac  passedUpPk:vector(packetBytes)  ETV
attr interpolationmode  none
attr source  packetSentToUpper
attr title  "packets passed to higher layer, vector(packetBytes)"
vector 3  assignment1.client1.networkLayer.arp  sentReply:vector  ETV
attr title  "ARP replies sent, vector"
vector 11  assignment1.client1.wlan[0].mac  rcvdPkFromHL:vector(packetBytes)  ETV
attr interpolationmode  none
attr source  packetReceivedFromUpper
attr title  "packets received from higher layer, vector(packetBytes)"
vector 10  assignment1.client1.wlan[0].mac  sentDownPk:vector(packetBytes)  ETV
attr interpolationmode  none
attr source  packetSentToLower
attr title  "packets sent to lower layer, vector(packetBytes)"
vector 49  assignment1.client1.wlan[0].mac  "Mac delay AC0"  ETV
vector 27  assignment1.client2.wlan[0].mac  passedUpPk:vector(packetBytes)  ETV
attr interpolationmode  none
attr source  packetSentToUpper
attr title  "packets passed to higher layer, vector(packetBytes)"
vector 61  assignment1.ap.wlan[0].mac  "Mac delay AC0"  ETV
vector 68  assignment1.client1.tcp  "rcvd seq"  ETV
vector 69  assignment1.client1.tcp  "rcvd ack"  ETV
vector 65  assignment1.client1.tcp  "advertised window"  ETV
vector 63  assignment1.client1.tcp  "send window"  ETV
vector 78  assignment1.client1.tcp  tcpRcvQueueBytes  ETV
vector 64  assignment1.client1.tcp  "receive window"  ETV
vector 67  assignment1.client1.tcp  "sent ack"  ETV
vector 92  assignment1.client2.tcp  "rcvd seq"  ETV
vector 93  assignment1.client2.tcp  "rcvd ack"  ETV
vector 87  assignment1.client2.tcp  "send window"  ETV
vector 18  assignment1.client2.tcpApp[0]  sentPk:vector(packetBytes)  ETV
attr interpolationmode  none
attr source  sentPk
attr title  "packets sent, vector(packetBytes)"
vector 90  assignment1.client2.tcp  "sent seq"  ETV
vector 94  assignment1.client2.tcp  "unacked bytes"  ETV
vector 70  assignment1.client1.tcp  "unacked bytes"  ETV
vector 71  assignment1.client1.tcp  "rcvd dupAcks"  ETV
vector 0  assignment1.client1.tcpApp[0]  rcvdPk:vector(packetBytes)  ETV
attr interpolationmode  none
attr source  rcvdPk
attr title  "packets received, vector(packetBytes)"
vector 1  assignment1.client1.tcpApp[0]  endToEndDelay:vector  ETV
attr interpolationmode  none
attr source  messageAge(rcvdPk)
attr title  "end-to-end delay, vector"
attr unit  s
vector 106  assignment1.client2.tcp  "measured RTT"  ETV
vector 107  assignment1.client2.tcp  "smoothed RTT"  ETV
vector 108  assignment1.client2.tcp  RTTVAR  ETV
vector 109  assignment1.client2.tcp  RTO  ETV
vector 104  assignment1.client2.tcp  cwnd  ETV
vector 95  assignment1.client2.tcp  "rcvd dupAcks"  ETV
vector 34  assignment1.client2.wlan[0].radio  lossRate:vector  ETV
attr interpolationmode  backward-sample-hold
attr title  "packet loss rate, vector"
vector 16  assignment1.client1.wlan[0].radio  lossRate:vector  ETV
attr interpolationmode  backward-sample-hold
attr title  "packet loss rate, vector"
vector 44  assignment1.ap.wlan[0].radio  lossRate:vector  ETV
attr interpolationmode  backward-sample-hold
attr title  "packet loss rate, vector"
vector 36  assignment1.ap.wlan[0].mgmt  dropPkByQueue:vector(packetBytes)  ETV
attr interpolationmode  none
attr source  dropPkByQueue
attr title  "packets dropped by queue, vector(packetBytes)"
vector 75  assignment1.client1.tcp  "rcvd oooseg"  ETV
vector 105  assignment1.client2.tcp  ssthresh  ETV
vector 60  assignment1.ap.wlan[0].mac  "throughput AC0"  ETV
vector 59  assignment1.ap.wlan[0].mac  "jitter AC0"  ETV
vector 54  assignment1.client2.wlan[0].mac  "throughput AC0"  ETV
vector 53  assignment1.client2.wlan[0].mac  "jitter AC0"  ETV
vector 48  assignment1.client1.wlan[0].mac  "throughput AC0"  ETV
vector 47  assignment1.client1.wlan[0].mac  "jitter AC0"  ETV
vector 110  assignment1.client2.tcp  numRTOs  ETV
vector 76  assignment1.client1.tcp  "rcvd naseg"  ETV
0	312	0.005975595872	1024
0	425	0.00800573003	1024
0	536	0.010117420328	1024
0	673	0.012738110626	1024
0	752	0.014366244784	1024
0	839	0.015806378942	1024
0	1027	0.01968062538	1024
0	1178	0.022918427958	1024
0	1234	0.024064005976	1024
0	1370	0.026721274292	1024
0	1426	0.02766885231	1024
0	1456	0.028304430328	1024
0	1509	0.029387008346	1024
0	1641	0.031864720522	1024
0	1777	0.03450341082	1024
0	2172	0.042697994098	1024
0	2281	0.044872128256	1024
0	2361	0.046572262414	1024
0	2471	0.048548396572	1024
0	2526	0.04955897459	1024
0	2582	0.050730735067	1024
0	2635	0.051705313085	1024
0	2688	0.052760891103	1024
0	2741	0.053861469121	1024
0	4982	0.098548651879	2048
0	5922	0.1172963786	2048
0	6029	1.684297179132	6144
0	6165	1.68712486943	8192
0	6383	1.691329137746	12800
0	6677	1.69723854022	1024
0	6830	1.701139230518	1024
0	6988	1.704593476956	1024
0	7067	1.706077611114	1024
0	7098	1.706641189132	1024
0	7233	1.709065479326	1024
0	7286	1.710256057344	1024
0	7503	1.71438043794	1024
0	7637	1.717217128238	1024
0	7691	1.718272706256	1024
0	7798	1.720302840414	1024
0	7853	1.721430418432	1024
0	8038	1.72534066487	1024
0	8200	1.728453355168	1024
0	8253	1.729499933186	1024
0	8306	1.730582511204	1024
0	8416	1.73273022338	1024
0	8470	1.733893801398	1024
0	8629	1.736988491696	1024
0	8869	1.741765294274	1024
0	8923	1.742784872292	1024
0	9030	1.74486000645	1024
0	9086	1.745924584468	1024
0	9116	1.746533162486	1024
0	9193	1.748099318522	1024
0	9351	1.75129300882	1024
0	9594	1.756137811398	1024
0	9674	1.757747945556	1024
0	9833	1.761076191994	1024
0	9886	1.762041770012	1024
0	9995	1.76425190417	1024
0	10104	1.766417038328	1024
0	10157	1.767400616346	1024
1	312	0.005975595872	0
1	425	0.00800573003	0
1	536	0.010117420328	0
1	673	0.012738110626	0
1	752	0.014366244784	0
1	839	0.015806378942	0
1	1027	0.01968062538	0
1	1178	0.022918427958	0
1	1234	0.024064005976	0
1	1370	0.026721274292	0
1	1426	0.02766885231	0
1	1456	0.028304430328	0
1	1509	0.029387008346	0
1	1641	0.031864720522	0
1	1777	0.03450341082	0
1	2172	0.042697994098	0
1	2281	0.044872128256	0
1	2361	0.046572262414	0
1	2471	0.048548396572	0
1	2526	0.04955897459	0
1	2582	0.050730735067	0
1	2635	0.051705313085	0
1	2688	0.052760891103	0
1	2741	0.053861469121	0
1	4982	0.098548651879	0
1	5922	0.1172963786	0
1	6029	1.684297179132	0
1	6165	1.68712486943	0
1	6383	1.691329137746	0
1	6677	1.69723854022	0
1	6830	1.701139230518	0
1	6988	1.704593476956	0
1	7067	1.706077611114	0
1	7098	1.706641189132	0
1	7233	1.709065479326	0
1	7286	1.710256057344	0
1	7503	1.71438043794	0
1	7637	1.717217128238	0
1	7691	1.718272706256	0
1	7798	1.720302840414	0
1	7853	1.721430418432	0
1	8038	1.72534066487	0
1	8200	1.728453355168	0
1	8253	1.729499933186	0
1	8306	1.730582511204	0
1	8416	1.73273022338	0
1	8470	1.733893801398	0
1	8629	1.736988491696	0
1	8869	1.741765294274	0
1	8923	1.742784872292	0
1	9030	1.74486000645	0
1	9086	1.745924584468	0
1	9116	1.746533162486	0
1	9193	1.748099318522	0
1	9351	1.75129300882	0
1	9594	1.756137811398	0
1	9674	1.757747945556	0
1	9833	1.761076191994	0
1	9886	1.762041770012	0
1	9995	1.76425190417	0
1	10104	1.766417038328	0
1	10157	1.767400616346	0
3	50	0.001331567079	1
7	0	0	0
7	4387	0.086675282221	1
7	4497	0.089011176856	0
7	4517	0.089287176856	1
7	4551	0.090003754874	0
9	47	0.001331567079	70
9	144	0.002915701237	86
9	257	0.004776835395	82
9	308	0.005975595872	1106
9	421	0.00800573003	1106
9	532	0.010117420328	1106
9	669	0.012738110626	1106
9	748	0.014366244784	1106
9	835	0.015806378942	1106
9	1023	0.01968062538	1106
9	1174	0.022918427958	1106
9	1230	0.024064005976	1106
9	1366	0.026721274292	1106
9	1422	0.02766885231	1106
9	1452	0.028304430328	1106
9	1505	0.029387008346	1106
9	1637	0.031864720522	1106
9	1773	0.03450341082	1106
9	2168	0.042697994098	1106
9	2277	0.044872128256	1106
9	2357	0.046572262414	1106
9	2467	0.048548396572	1106
9	2522	0.04955897459	1106
9	2578	0.050730735067	1106
9	2631	0.051705313085	1106
9	2684	0.052760891103	1106
9	2737	0.053861469121	1106
9	2813	0.055274625157	1106
9	2923	0.057314337333	1106
9	3090	0.060427414427	1106
9	3220	0.063358104725	1106
9	3492	0.068596019583	1106
9	3577	0.070018153741	1106
9	3774	0.074441956319	1106
9	3933	0.077528202757	1106
9	4012	0.079210336915	1106
9	4066	0.080157914933	1106
9	4219	0.08350878769	1106
9	4298	0.085128126185	1106
9	4352	0.086129704203	1106
9	4382	0.086675282221	1106
9	4512	0.089287176856	1106
9	4637	0.091604093369	1106
9	4715	0.093161227527	1106
9	4768	0.094252805545	1106
9	4820	0.095263383563	1106
9	4925	0.097358073861	1106
9	4978	0.098548651879	1106
9	5420	0.107344791297	594
9	5474	0.108292369315	1106
9	5529	0.109473947333	1106
9	5581	0.110394525351	1106
9	5610	0.110958103369	1106
9	5685	0.112380259405	1106
9	5918	0.1172963786	1106
9	6025	1.684297179132	1106
9	6161	1.68712486943	1106
9	6217	1.688216447448	1106
9	6379	1.691329137746	1106
9	6434	1.692303715764	1106
9	6619	1.696245962202	1106
9	6673	1.69723854022	1106
9	6826	1.701139230518	1106
9	6984	1.704593476956	1106
9	7063	1.706077611114	1106
9	7094	1.706641189132	1106
9	7229	1.709065479326	1106
9	7282	1.710256057344	1106
9	7499	1.71438043794	1106
9	7633	1.717217128238	1106
9	7687	1.718272706256	1106
9	7794	1.720302840414	1106
9	7849	1.721430418432	1106
9	8034	1.72534066487	1106
9	8196	1.728453355168	1106
9	8249	1.729499933186	1106
9	8302	1.730582511204	1106
9	8412	1.73273022338	1106
9	8466	1.733893801398	1106
9	8625	1.736988491696	1106
9	8865	1.741765294274	1106
9	8919	1.742784872292	1106
9	9026	1.74486000645	1106
9	9082	1.745924584468	1106
9	9112	1.746533162486	1106
9	9189	1.748099318522	1106
9	9347	1.75129300882	1106
9	9590	1.756137811398	1106
9	9670	1.757747945556	1106
9	9829	1.761076191994	1106
9	9882	1.762041770012	1106
9	9991	1.76425190417	1106
9	10100	1.766417038328	1106
9	10153	1.767400616346	1106
10	56	0.001359567079	70
10	151	0.002925701237	14
10	162	0.003257701237	86
10	262	0.004786835395	14
10	316	0.005985595872	14
10	327	0.006317595872	82
10	429	0.00801573003	14
10	442	0.00836573003	82
10	540	0.010127420328	14
10	551	0.010459420328	82
10	677	0.012748110626	14
10	688	0.013080110626	82
10	756	0.014376244784	14
10	768	0.014708244784	82
10	843	0.015816378942	14
10	854	0.016148378942	82
10	1031	0.01969062538	14
10	1043	0.02002262538	82
10	1182	0.022928427958	14
10	1194	0.023260427958	82
10	1238	0.024074005976	14
10	1308	0.025381140134	82
10	1374	0.026731274292	14
10	1386	0.027063274292	82
10	1430	0.02767885231	14
10	1460	0.028314430328	14
10	1473	0.028790430328	82
10	1513	0.029397008346	14
10	1526	0.029918008346	82
10	1549	0.030320586364	82
10	1645	0.031874720522	14
10	1657	0.032206720522	82
10	1781	0.03451341082	14
10	1793	0.03484541082	82
10	2176	0.042707994098	14
10	2188	0.043039994098	82
10	2285	0.044882128256	14
10	2297	0.045214128256	82
10	2365	0.046582262414	14
10	2377	0.046914262414	82
10	2475	0.048558396572	14
10	2489	0.048944396572	82
10	2530	0.04956897459	14
10	2586	0.050740735067	14
10	2599	0.051117735067	82
10	2639	0.051715313085	14
10	2652	0.052074313085	82
10	2692	0.052770891103	14
10	2705	0.053273891103	82
10	2745	0.053871469121	14
10	2758	0.054221469121	82
10	2781	0.054642047139	82
10	2820	0.055284625157	14
10	2890	0.056663759315	82
10	2930	0.057324337333	14
10	3001	0.058685280269	82
10	3097	0.060437414427	14
10	3109	0.060769414427	82
10	3227	0.063368104725	14
10	3239	0.063700104725	82
10	3499	0.068606019583	14
10	3511	0.068938019583	82
10	3584	0.070028153741	14
10	3596	0.070360153741	82
10	3781	0.074451956319	14
10	3793	0.074783956319	82
10	3940	0.077538202757	14
10	3952	0.077870202757	82
10	4019	0.079220336915	14
10	4031	0.079552336915	82
10	4073	0.080167914933	14
10	4115	0.08127967541	82
10	4226	0.08351878769	14
10	4265	0.084459548167	82
10	4305	0.085138126185	14
10	4319	0.085506126185	82
10	4359	0.086139704203	14
10	4388	0.086685282221	14
10	4477	0.088654598838	82
10	4518	0.089297176856	14
10	4531	0.089647176856	82
10	4555	0.090049754874	82
10	4604	0.090989515351	82
10	4644	0.091614093369	14
10	4656	0.091946093369	82
10	4722	0.093171227527	14
10	4734	0.093503227527	82
10	4775	0.094262805545	14
10	4787	0.094594805545	82
10	4827	0.095273383563	14
10	4840	0.095686383563	82
10	4932	0.097368073861	14
10	4944	0.097700073861	82
10	4986	0.098558651879	14
10	4998	0.098890651879	82
10	5427	0.107354791297	14
10	5439	0.107686791297	82
10	5481	0.108302369315	14
10	5495	0.108715369315	82
10	5536	0.109483947333	14
10	5548	0.109815947333	82
10	5588	0.110404525351	14
10	5617	0.110968103369	14
10	5630	0.111309103369	82
10	5653	0.111792681387	82
10	5692	0.112390259405	14
10	5731	0.113350019882	82
10	5926	0.1173063786	14
10	5937	0.1176383786	82
10	6033	1.684307179132	14
10	6044	1.684639179132	82
10	6169	1.68713486943	14
10	6180	1.68746686943	82
10	6224	1.688226447448	14
10	6235	1.688558447448	82
10	6387	1.691339137746	14
10	6398	1.691671137746	82
10	6441	1.692313715764	14
10	6454	1.692780715764	82
10	6626	1.696255962202	14
10	6637	1.696587962202	82
10	6681	1.69724854022	14
10	6694	1.69770654022	82
10	6834	1.701149230518	14
10	6845	1.701481230518	82
10	6992	1.704603476956	14
10	7004	1.704935476956	82
10	7071	1.706087611114	14
10	7102	1.706651189132	14
10	7171	1.70801232329	82
10	7195	1.708423901308	82
10	7237	1.709075479326	14
10	7250	1.709542479326	82
10	7290	1.710266057344	14
10	7357	1.711645191502	82
10	7507	1.71439043794	14
10	7519	1.71472243794	82
10	7641	1.717227128238	14
10	7653	1.717559128238	82
10	7695	1.718282706256	14
10	7707	1.718614706256	82
10	7802	1.720312840414	14
10	7816	1.720698840414	82
10	7857	1.721440418432	14
10	7870	1.721808418432	82
10	8042	1.72535066487	14
10	8054	1.72568266487	82
10	8204	1.728463355168	14
10	8216	1.728795355168	82
10	8257	1.729509933186	14
10	8270	1.729949933186	82
10	8310	1.730592511204	14
10	8377	1.731899645362	82
10	8420	1.73274022338	14
10	8432	1.73307222338	82
10	8474	1.733903801398	14
10	8486	1.734235801398	82
10	8633	1.736998491696	14
10	8645	1.737330491696	82
10	8873	1.741775294274	14
10	8885	1.742107294274	82
10	8927	1.742794872292	14
10	8939	1.743126872292	82
10	9034	1.74487000645	14
10	9048	1.74523800645	82
10	9090	1.745934584468	14
10	9120	1.746543162486	14
10	9133	1.746965162486	82
10	9156	1.747358740504	82
10	9197	1.748109318522	14
10	9209	1.748441318522	82
10	9355	1.75130300882	14
10	9367	1.75163500882	82
10	9598	1.756147811398	14
10	9610	1.756479811398	82
10	9678	1.757757945556	14
10	9690	1.758089945556	82
10	9837	1.761086191994	14
10	9849	1.761418191994	82
10	9890	1.762051770012	14
10	9903	1.762446770012	82
10	9999	1.76426190417	14
10	10011	1.76459390417	82
10	10108	1.766427038328	14
10	10120	1.766759038328	82
11	53	0.001331567079	70
11	150	0.002915701237	86
11	315	0.005975595872	82
11	428	0.00800573003	82
11	539	0.010117420328	82
11	676	0.012738110626	82
11	755	0.014366244784	82
11	842	0.015806378942	82
11	1030	0.01968062538	82
11	1181	0.022918427958	82
11	1237	0.024064005976	82
11	1373	0.026721274292	82
11	1429	0.02766885231	82
11	1459	0.028304430328	82
11	1512	0.029387008346	82
11	1644	0.031864720522	82
11	1780	0.03450341082	82
11	2175	0.042697994098	82
11	2284	0.044872128256	82
11	2364	0.046572262414	82
11	2474	0.048548396572	82
11	2529	0.04955897459	82
11	2585	0.050730735067	82
11	2638	0.051705313085	82
11	2691	0.052760891103	82
11	2744	0.053861469121	82
11	2819	0.055274625157	82
11	2929	0.057314337333	82
11	3096	0.060427414427	82
11	3226	0.063358104725	82
11	3498	0.068596019583	82
11	3583	0.070018153741	82
11	3780	0.074441956319	82
11	3939	0.077528202757	82
11	4018	0.079210336915	82
11	4072	0.080157914933	82
11	4225	0.08350878769	82
11	4304	0.085128126185	82
11	4358	0.086129704203	82
11	4498	0.089011176856	82
11	4552	0.090003754874	82
11	4643	0.091604093369	82
11	4721	0.093161227527	82
11	4774	0.094252805545	82
11	4826	0.095263383563	82
11	4931	0.097358073861	82
11	4985	0.098548651879	82
11	5426	0.107344791297	82
11	5480	0.108292369315	82
11	5535	0.109473947333	82
11	5587	0.110394525351	82
11	5616	0.110958103369	82
11	5691	0.112380259405	82
11	5925	0.1172963786	82
11	6032	1.684297179132	82
11	6168	1.68712486943	82
11	6223	1.688216447448	82
11	6386	1.691329137746	82
11	6440	1.692303715764	82
11	6625	1.696245962202	82
11	6680	1.69723854022	82
11	6833	1.701139230518	82
11	6991	1.704593476956	82
11	7070	1.706077611114	82
11	7101	1.706641189132	82
11	7236	1.709065479326	82
11	7289	1.710256057344	82
11	7506	1.71438043794	82
11	7640	1.717217128238	82
11	7694	1.718272706256	82
11	7801	1.720302840414	82
11	7856	1.721430418432	82
11	8041	1.72534066487	82
11	8203	1.728453355168	82
11	8256	1.729499933186	82
11	8309	1.730582511204	82
11	8419	1.73273022338	82
11	8473	1.733893801398	82
11	8632	1.736988491696	82
11	8872	1.741765294274	82
11	8926	1.742784872292	82
11	9033	1.74486000645	82
11	9089	1.745924584468	82
11	9119	1.746533162486	82
11	9196	1.748099318522	82
11	9354	1.75129300882	82
11	9597	1.756137811398	82
11	9677	1.757747945556	82
11	9836	1.761076191994	82
11	9889	1.762041770012	82
11	9998	1.76425190417	82
11	10107	1.766417038328	82
12	20	0.000066193398	70
12	35	0.000380567079	14
12	47	0.001331567079	70
12	77	0.001712145097	14
12	96	0.001940145097	70
12	105	0.002254327556	14
12	116	0.002324327556	86
12	131	0.002638701237	14
12	144	0.002915701237	86
12	184	0.003614279255	14
12	210	0.003900279255	86
12	219	0.004214461714	14
12	230	0.004284461714	82
12	245	0.004598835395	14
12	257	0.004776835395	82
12	281	0.005439222191	1106
12	296	0.005753595872	14
12	308	0.005975595872	1106
12	350	0.00667417389	14
12	372	0.00680717389	82
12	381	0.007121356349	14
12	393	0.007343356349	1106
12	408	0.00765773003	14
12	421	0.00800573003	1106
12	463	0.008722308048	14
12	474	0.009016490507	1106
12	489	0.009330864188	14
12	509	0.009463864188	82
12	518	0.009778046647	14
12	532	0.010117420328	1106
12	574	0.010815998346	14
12	584	0.011083180805	1106
12	599	0.011397554486	14
12	619	0.011494554486	82
12	628	0.011808736945	14
12	641	0.012183736945	1106
12	657	0.012498110626	14
12	669	0.012738110626	1106
12	711	0.013436688644	14
12	722	0.013784871103	1106
12	736	0.014099244784	14
12	748	0.014366244784	1106
12	790	0.015064822802	14
12	811	0.015269822802	82
12	820	0.015584005261	14
12	835	0.015806378942	1106
12	877	0.01650495696	14
12	888	0.016817139419	1106
12	903	0.0171315131	14
12	921	0.0172735131	82
12	930	0.017587695559	14
12	942	0.017953695559	1106
12	957	0.01826806924	14
12	975	0.01834706924	82
12	984	0.018661251699	14
12	996	0.019045251699	1106
12	1011	0.01935962538	14
12	1023	0.01968062538	1106
12	1065	0.020379203398	14
12	1075	0.020673385857	1106
12	1090	0.020987759538	14
12	1101	0.021272941997	1106
12	1116	0.021587315678	14
12	1125	0.021809498137	1106
12	1139	0.022123871818	14
12	1148	0.022355054277	1106
12	1162	0.022669427958	14
12	1174	0.022918427958	1106
12	1216	0.023617005976	14
12	1230	0.024064005976	1106
12	1268	0.024448583994	82
12	1277	0.024762766453	14
12	1290	0.024984766453	1106
12	1304	0.025299140134	14
12	1328	0.025737718152	14
12	1338	0.025995900611	1106
12	1352	0.026310274292	14
12	1366	0.026721274292	1106
12	1408	0.02741985231	14
12	1422	0.02766885231	1106
12	1452	0.028304430328	1106
12	1493	0.029147008346	14
12	1505	0.029387008346	1106
12	1546	0.030274586364	14
12	1569	0.030677164382	14
12	1590	0.030792164382	82
12	1599	0.031106346841	14
12	1611	0.031328346841	1106
12	1625	0.031642720522	14
12	1637	0.031864720522	1106
12	1679	0.03256329854	14
12	1689	0.032821480999	1106
12	1703	0.03313585468	14
12	1726	0.03335885468	82
12	1735	0.033673037139	14
12	1747	0.033895037139	1106
12	1761	0.03420941082	14
12	1773	0.03450341082	1106
12	1815	0.035201988838	14
12	1825	0.035532171297	1106
12	1839	0.035846544978	14
12	1862	0.035961544978	82
12	1871	0.036275727437	14
12	1883	0.036497727437	1106
12	1897	0.036812101118	14
12	1916	0.036963101118	82
12	1925	0.037277283577	14
12	1937	0.037508283577	1106
12	1952	0.037822657258	14
12	1970	0.038117657258	82
12	1979	0.038431839717	14
12	1991	0.038707839717	1106
12	2006	0.039022213398	14
12	2015	0.039253395857	1106
12	2030	0.039567769538	14
12	2039	0.039798951997	1106
12	2053	0.040113325678	14
12	2062	0.040398508137	1106
12	2076	0.040712881818	14
12	2097	0.040863881818	82
12	2106	0.041178064277	14
12	2118	0.041400064277	1106
12	2132	0.041714437958	14
12	2141	0.041963620417	1106
12	2155	0.042277994098	14
12	2168	0.042697994098	1106
12	2209	0.043396572116	14
12	2230	0.043673572116	82
12	2239	0.043987754575	14
12	2251	0.044209754575	1106
12	2265	0.044524128256	14
12	2277	0.044872128256	1106
12	2319	0.045570706274	14
12	2330	0.045828888733	1106
12	2344	0.046143262414	14
12	2357	0.046572262414	1106
12	2398	0.047270840432	14
12	2418	0.047367840432	82
12	2427	0.047682022891	14
12	2440	0.047904022891	1106
12	2454	0.048218396572	14
12	2467	0.048548396572	1106
12	2509	0.04930097459	14
12	2522	0.04955897459	1106
12	2550	0.050122361386	1106
12	2564	0.050436735067	14
12	2578	0.050730735067	1106
12	2619	0.051474313085	14
12	2631	0.051705313085	1106
12	2672	0.052430891103	14
12	2684	0.052760891103	1106
12	2725	0.053630469121	14
12	2737	0.053861469121	1106
12	2778	0.054578047139	14
12	2801	0.054998625157	14
12	2813	0.055274625157	1106
12	2850	0.055731203175	82
12	2859	0.056045385634	14
12	2872	0.056267385634	1106
12	2886	0.056581759315	14
12	2910	0.057020337333	14
12	2923	0.057314337333	1106
12	2950	0.057859724129	1106
12	2964	0.05817409781	14
12	2985	0.05826209781	82
12	2994	0.058576280269	14
12	3021	0.059041858287	14
12	3040	0.059237858287	82
12	3049	0.059552040746	14
12	3063	0.059783040746	1106
12	3078	0.060097414427	14
12	3090	0.060427414427	1106
12	3131	0.061125992445	14
12	3141	0.061429174904	1106
12	3156	0.061743548585	14
12	3176	0.061921548585	82
12	3185	0.062235731044	14
12	3201	0.062502731044	1106
12	3220	0.063358104725	1106
12	3261	0.064056682743	14
12	3280	0.064126682743	82
12	3289	0.064440865202	14
12	3311	0.064556238883	82
12	3320	0.064870421342	14
12	3333	0.065101421342	1106
12	3348	0.065415795023	14
12	3358	0.065637977482	1106
12	3373	0.065952351163	14
12	3383	0.066327533622	1106
12	3398	0.066641907303	14
12	3418	0.066819907303	82
12	3427	0.067134089762	14
12	3448	0.067240463443	82
12	3457	0.067554645902	14
12	3473	0.067794645902	1106
12	3492	0.068596019583	1106
12	3533	0.069294597601	14
12	3553	0.069391597601	82
12	3562	0.06970578006	14
12	3577	0.070018153741	1106
12	3618	0.070716731759	14
12	3628	0.070992914218	1106
12	3643	0.071307287899	14
12	3658	0.071440287899	82
12	3678	0.072017287899	82
12	3687	0.072331470358	14
12	3699	0.072598470358	1106
12	3714	0.072912844039	14
12	3723	0.073135026498	1106
12	3738	0.073449400179	14
12	3747	0.073761582638	1106
12	3762	0.074075956319	14
12	3774	0.074441956319	1106
12	3815	0.075140534337	14
12	3825	0.075380716796	1106
12	3840	0.075695090477	14
12	3855	0.075846090477	82
12	3864	0.076160272936	14
12	3878	0.076580272936	1106
12	3893	0.076894646617	14
12	3909	0.076973646617	82
12	3918	0.077287829076	14
12	3933	0.077528202757	1106
12	3974	0.078226780775	14
12	3985	0.078664963234	1106
12	4000	0.078979336915	14
12	4012	0.079210336915	1106
12	4053	0.079908914933	14
12	4066	0.080157914933	1106
12	4093	0.080928301729	1106
12	4108	0.08124267541	14
12	4142	0.08187167541	82
12	4151	0.082185857869	14
12	4164	0.082425857869	1106
12	4179	0.08274023155	14
12	4194	0.08281923155	82
12	4203	0.083133414009	14
12	4219	0.08350878769	1106
12	4246	0.084063174486	1106
12	4261	0.084377548167	14
12	4285	0.084816126185	14
12	4298	0.085128126185	1106
12	4339	0.085862704203	14
12	4352	0.086129704203	1106
12	4382	0.086675282221	1106
12	4408	0.087220669017	1106
12	4422	0.087535042698	14
12	4437	0.087632042698	82
12	4446	0.087946225157	14
12	4459	0.088231225157	1106
12	4473	0.088545598838	14
12	4497	0.089011176856	14
12	4512	0.089287176856	1106
12	4551	0.090003754874	14
12	4575	0.090406332892	14
12	4589	0.090539332892	82
12	4598	0.090853515351	14
12	4624	0.091346093369	14
12	4637	0.091604093369	1106
12	4677	0.092302671387	14
12	4692	0.092570671387	82
12	4701	0.092884853846	14
12	4715	0.093161227527	1106
12	4755	0.093859805545	14
12	4768	0.094252805545	1106
12	4808	0.094951383563	14
12	4820	0.095263383563	1106
12	4860	0.096042961581	14
12	4874	0.096247961581	82
12	4883	0.09656214404	14
12	4900	0.096704517721	82
12	4909	0.09701870018	14
12	4925	0.097358073861	1106
12	4965	0.098056651879	14
12	4978	0.098548651879	1106
12	5019	0.099247229897	14
12	5034	0.099578229897	82
12	5043	0.099892412356	14
12	5059	0.099989786037	82
12	5068	0.100303968496	14
12	5087	0.100644342177	82
12	5096	0.100958524636	14
12	5108	0.101104524636	594
12	5122	0.101418898317	14
12	5139	0.101506898317	82
12	5148	0.101821080776	14
12	5160	0.102124080776	1106
12	5174	0.102438454457	14
12	5191	0.102544454457	82
12	5200	0.102858636916	14
12	5220	0.103001010597	82
12	5229	0.103315193056	14
12	5241	0.103573193056	1106
12	5255	0.103887566737	14
12	5272	0.103993566737	82
12	5281	0.104307749196	14
12	5293	0.104664749196	1106