version 2
run General-0-20140512-18:11:15-15859
attr configname General
attr datetime 20140512-18:11:15
attr experiment General
attr inifile omnetpp.ini
attr iterationvars ""
attr iterationvars2 $repetition=0
attr measurement ""
attr network Lan80211
attr processid 15859
attr repetition 0
attr replication #0
attr resultdir results
attr runnumber 0
attr seedset 0

vector 10  Lan80211.host[0].wlan[0].mgmt  dataQueueLen:vector  ETV
attr interpolationmode  sample-hold
attr title  "data queue length, vector"
vector 30  Lan80211.host[1].wlan[0].mgmt  dataQueueLen:vector  ETV
attr interpolationmode  sample-hold
attr title  "data queue length, vector"
vector 40  Lan80211.ap.wlan[0].mgmt  dataQueueLen:vector  ETV
attr interpolationmode  sample-hold
attr title  "data queue length, vector"
vector 51  Lan80211.host[0].wlan[0].mac  RadioState  ETV
attr enum  "IDLE=0, OFF=4, RECV=1, SLEEP=3, TRANSMIT=2"
attr enumname  RadioState
vector 50  Lan80211.host[0].wlan[0].mac  State  ETV
attr enum  "BACKOFF=3, DEFER=1, IDLE=0, RECEIVE=8, WAITACK=4, WAITAIFS=2, WAITCTS=6, WAITMULTICAST=5, WAITSIFS=7"
attr enumname  Ieee80211Mac
vector 57  Lan80211.host[1].wlan[0].mac  RadioState  ETV
attr enum  "IDLE=0, OFF=4, RECV=1, SLEEP=3, TRANSMIT=2"
attr enumname  RadioState
vector 56  Lan80211.host[1].wlan[0].mac  State  ETV
attr enum  "BACKOFF=3, DEFER=1, IDLE=0, RECEIVE=8, WAITACK=4, WAITAIFS=2, WAITCTS=6, WAITMULTICAST=5, WAITSIFS=7"
attr enumname  Ieee80211Mac
vector 63  Lan80211.ap.wlan[0].mac  RadioState  ETV
attr enum  "IDLE=0, OFF=4, RECV=1, SLEEP=3, TRANSMIT=2"
attr enumname  RadioState
vector 62  Lan80211.ap.wlan[0].mac  State  ETV
attr enum  "BACKOFF=3, DEFER=1, IDLE=0, RECEIVE=8, WAITACK=4, WAITAIFS=2, WAITCTS=6, WAITMULTICAST=5, WAITSIFS=7"
attr enumname  Ieee80211Mac
vector 16  Lan80211.host[0].wlan[0].radio  bitrate:vector  ETV
attr interpolationmode  sample-hold
attr title  "tx bitrate, vector"
attr unit  bps
vector 18  Lan80211.host[0].wlan[0].radio  radioState:vector  ETV
attr interpolationmode  sample-hold
attr title  "radio state (enum), vector"
vector 17  Lan80211.host[0].wlan[0].radio  channelNo:vector  ETV
attr interpolationmode  sample-hold
attr title  "channel no, vector"
vector 36  Lan80211.host[1].wlan[0].radio  bitrate:vector  ETV
attr interpolationmode  sample-hold
attr title  "tx bitrate, vector"
attr unit  bps
vector 38  Lan80211.host[1].wlan[0].radio  radioState:vector  ETV
attr interpolationmode  sample-hold
attr title  "radio state (enum), vector"
vector 37  Lan80211.host[1].wlan[0].radio  channelNo:vector  ETV
attr interpolationmode  sample-hold
attr title  "channel no, vector"
vector 46  Lan80211.ap.wlan[0].radio  bitrate:vector  ETV
attr interpolationmode  sample-hold
attr title  "tx bitrate, vector"
attr unit  bps
vector 48  Lan80211.ap.wlan[0].radio  radioState:vector  ETV
attr interpolationmode  sample-hold
attr title  "radio state (enum), vector"
vector 47  Lan80211.ap.wlan[0].radio  channelNo:vector  ETV
attr interpolationmode  sample-hold
attr title  "channel no, vector"
vector 23  Lan80211.host[1].pingApp[0]  pingTxSeq:vector  ETV
attr interpolationmode  none
attr title  "ping tx seq, vector"
vector 25  Lan80211.host[1].networkLayer.arp  sentReq:vector  ETV
attr title  "ARP request sent, vector"
vector 34  Lan80211.host[1].wlan[0].mac  rcvdPkFromHL:vector(packetBytes)  ETV
attr interpolationmode  none
attr source  packetReceivedFromUpper
attr title  "packets received from higher layer, vector(packetBytes)"
vector 33  Lan80211.host[1].wlan[0].mac  sentDownPk:vector(packetBytes)  ETV
attr interpolationmode  none
attr source  packetSentToLower
attr title  "packets sent to lower layer, vector(packetBytes)"
vector 67  Lan80211.ap.wlan[0].radio  snirVector  ETV
vector 45  Lan80211.ap.wlan[0].mac  rcvdPkFromLL:vector(packetBytes)  ETV
attr interpolationmode  none
attr source  packetReceivedFromLower
attr title  "packets received from lower layer, vector(packetBytes)"
vector 42  Lan80211.ap.wlan[0].mac  passedUpPk:vector(packetBytes)  ETV
attr interpolationmode  none
attr source  packetSentToUpper
attr title  "packets passed to higher layer, vector(packetBytes)"
vector 44  Lan80211.ap.wlan[0].mac  rcvdPkFromHL:vector(packetBytes)  ETV
attr interpolationmode  none
attr source  packetReceivedFromUpper
attr title  "packets received from higher layer, vector(packetBytes)"
vector 55  Lan80211.host[0].wlan[0].radio  snirVector  ETV
vector 15  Lan80211.host[0].wlan[0].mac  rcvdPkFromLL:vector(packetBytes)  ETV
attr interpolationmode  none
attr source  packetReceivedFromLower
attr title  "packets received from lower layer, vector(packetBytes)"
vector 43  Lan80211.ap.wlan[0].mac  sentDownPk:vector(packetBytes)  ETV
attr interpolationmode  none
attr source  packetSentToLower
attr title  "packets sent to lower layer, vector(packetBytes)"
vector 61  Lan80211.host[1].wlan[0].radio  snirVector  ETV
vector 35  Lan80211.host[1].wlan[0].mac  rcvdPkFromLL:vector(packetBytes)  ETV
attr interpolationmode  none
attr source  packetReceivedFromLower
attr title  "packets received from lower layer, vector(packetBytes)"
vector 60  Lan80211.host[1].wlan[0].mac  "Mac delay AC0"  ETV
vector 12  Lan80211.host[0].wlan[0].mac  passedUpPk:vector(packetBytes)  ETV
attr interpolationmode  none
attr source  packetSentToUpper
attr title  "packets passed to higher layer, vector(packetBytes)"
vector 6  Lan80211.host[0].networkLayer.arp  sentReply:vector  ETV
attr title  "ARP replies sent, vector"
vector 14  Lan80211.host[0].wlan[0].mac  rcvdPkFromHL:vector(packetBytes)  ETV
attr interpolationmode  none
attr source  packetReceivedFromUpper
attr title  "packets received from higher layer, vector(packetBytes)"
vector 13  Lan80211.host[0].wlan[0].mac  sentDownPk:vector(packetBytes)  ETV
attr interpolationmode  none
attr source  packetSentToLower
attr title  "packets sent to lower layer, vector(packetBytes)"
vector 54  Lan80211.host[0].wlan[0].mac  "Mac delay AC0"  ETV
vector 32  Lan80211.host[1].wlan[0].mac  passedUpPk:vector(packetBytes)  ETV
attr interpolationmode  none
attr source  packetSentToUpper
attr title  "packets passed to higher layer, vector(packetBytes)"
vector 66  Lan80211.ap.wlan[0].mac  "Mac delay AC0"  ETV
vector 24  Lan80211.host[1].pingApp[0]  pingRxSeq:vector  ETV
attr interpolationmode  none
attr title  "ping rx seq, vector"
vector 20  Lan80211.host[1].pingApp[0]  rtt:vector  ETV
attr interpolationmode  none
attr title  "ping round-trip time, vector"
attr unit  s
vector 19  Lan80211.host[0].wlan[0].radio  lossRate:vector  ETV
attr interpolationmode  backward-sample-hold
attr title  "packet loss rate, vector"
vector 39  Lan80211.host[1].wlan[0].radio  lossRate:vector  ETV
attr interpolationmode  backward-sample-hold
attr title  "packet loss rate, vector"
vector 59  Lan80211.host[1].wlan[0].mac  "throughput AC0"  ETV
vector 58  Lan80211.host[1].wlan[0].mac  "jitter AC0"  ETV
vector 53  Lan80211.host[0].wlan[0].mac  "throughput AC0"  ETV
vector 52  Lan80211.host[0].wlan[0].mac  "jitter AC0"  ETV
vector 65  Lan80211.ap.wlan[0].mac  "throughput AC0"  ETV
vector 64  Lan80211.ap.wlan[0].mac  "jitter AC0"  ETV
6	54	0.008100609436	1
10	0	0	0
12	51	0.008100609436	70
12	149	0.011473553826	118
12	266	0.017934608855	118
12	387	0.02793460784	118
12	507	0.037934607531	118
12	628	0.047934608388	118
12	748	0.057934609194	118
12	870	0.067934609902	118
12	991	0.077934610478	118
12	1112	0.087934611603	118
12	1236	0.097934612237	118
12	1357	0.107934612701	118
13	59	0.008128609436	70
13	156	0.011483553826	14
13	169	0.011833553826	118
13	273	0.017944608855	14
13	284	0.018276608855	118
13	394	0.02794460784	14
13	406	0.02827660784	118
13	514	0.037944607531	14
13	525	0.038276607531	118
13	635	0.047944608388	14
13	646	0.048276608388	118
13	755	0.057944609194	14
13	767	0.058276609194	118
13	877	0.067944609902	14
13	888	0.068276609902	118
13	998	0.077944610478	14
13	1010	0.078276610478	118
13	1119	0.087944611603	14
13	1131	0.088276611603	118
13	1243	0.097944612237	14
13	1254	0.098276612237	118
13	1364	0.107944612701	14
13	1375	0.108276612701	118
14	57	0.008100609436	70
14	155	0.011473553826	118
14	272	0.017934608855	118
14	393	0.02793460784	118
14	513	0.037934607531	118
14	634	0.047934608388	118
14	754	0.057934609194	118
14	876	0.067934609902	118
14	997	0.077934610478	118
14	1118	0.087934611603	118
14	1242	0.097934612237	118
14	1363	0.107934612701	118
15	26	0.006736354759	70
15	37	0.007050609436	14
15	51	0.008100609436	70
15	81	0.00891584884	14
15	98	0.00945184884	70
15	109	0.009766299266	14
15	124	0.010458299266	118
15	135	0.010772553826	14
15	149	0.011473553826	118
15	191	0.012812793306	14
15	208	0.013513793306	118
15	219	0.013828243629	14
15	242	0.016928354662	118
15	253	0.017242608855	14
15	266	0.017934608855	118
15	308	0.019255848155	14
15	326	0.019983848155	118
15	337	0.020298298009	14
15	364	0.026928354103	118
15	375	0.02724260784	14
15	387	0.02793460784	118
15	428	0.02925584584	14
15	444	0.02994784584	118
15	455	0.030262294998	14
15	482	0.036928353039	118
15	493	0.037242607531	14
15	507	0.037934607531	118
15	549	0.039255845311	14
15	568	0.040010845295	118
15	579	0.040325294375	14
15	605	0.046928353377	118
15	616	0.047242608388	14
15	628	0.047934608388	118
15	670	0.049255847043	14
15	687	0.049956847043	118
15	698	0.050271296662	14
15	725	0.056928353889	118
15	736	0.057242609194	14
15	748	0.057934609194	118
15	790	0.059255848546	14
15	808	0.059992848546	118
15	819	0.060307298566	14
15	846	0.066928354164	118
15	858	0.067242609902	14
15	870	0.067934609902	118
15	913	0.069255850072	14
15	929	0.069947850072	118
15	941	0.070262300387	14
15	968	0.076928354881	118
15	979	0.077242610478	14
15	991	0.077934610478	118
15	1034	0.079255851796	14
15	1052	0.080010851796	118
15	1064	0.080325302665	14
15	1089	0.086928355788	118
15	1100	0.087242611603	14
15	1112	0.087934611603	118
15	1155	0.089255854021	14
15	1174	0.089956854021	118
15	1185	0.09027130575	14
15	1211	0.096928356536	118
15	1223	0.097242612212	14
15	1236	0.097934612237	118
15	1278	0.099255854559	14
15	1295	0.099974854559	118
15	1306	0.100289307624	14
15	1333	0.106928357452	118
15	1344	0.107242612701	14
15	1357	0.107934612701	118
15	1399	0.109255855094	14
15	1417	0.109992855094	118
15	1428	0.110307309398	14
16	0	0	2000000
17	0	0	0
18	0	0	0
18	19	0.006264354759	1
18	25	0.006736354759	0
18	31	0.006746609436	1
18	36	0.007050609436	0
18	44	0.007348609436	1
18	50	0.008100609436	0
18	60	0.008128609436	2
18	64	0.008600609436	0
18	75	0.00861184884	1
18	80	0.00891584884	0
18	87	0.00897984884	1
18	97	0.00945184884	0
18	103	0.009462299266	1
18	108	0.009766299266	0
18	116	0.009794299266	1
18	123	0.010458299266	0
18	129	0.010468553826	1
18	134	0.010772553826	0
18	142	0.010809553826	1
18	148	0.011473553826	0
18	157	0.011483553826	2
18	161	0.011787553826	0
18	170	0.011833553826	2
18	173	0.012497553826	0
18	184	0.012508793306	1
18	190	0.012812793306	0
18	198	0.012849793306	1
18	207	0.013513793306	0
18	213	0.013524243629	1
18	218	0.013828243629	0
18	234	0.016264354662	1
18	241	0.016928354662	0
18	247	0.016938608855	1
18	252	0.017242608855	0
18	259	0.017270608855	1
18	265	0.017934608855	0
18	274	0.017944608855	2
18	278	0.018248608855	0
18	285	0.018276608855	2
18	291	0.018940608855	0
18	302	0.018951848155	1
18	307	0.019255848155	0
18	316	0.019319848155	1
18	325	0.019983848155	0
18	331	0.019994298009	1
18	336	0.020298298009	0
18	355	0.026264354103	1
18	363	0.026928354103	0
18	369	0.02693860784	1
18	374	0.02724260784	0
18	381	0.02727060784	1
18	386	0.02793460784	0
18	395	0.02794460784	2
18	400	0.02824860784	0
18	407	0.02827660784	2
18	411	0.02894060784	0
18	422	0.02895184584	1
18	427	0.02925584584	0
18	435	0.02928384584	1
18	443	0.02994784584	0
18	449	0.029958294998	1
18	454	0.030262294998	0
18	475	0.036264353039	1
18	481	0.036928353039	0
18	487	0.036938607531	1
18	492	0.037242607531	0
18	499	0.037270607531	1
18	506	0.037934607531	0
18	515	0.037944607531	2
18	519	0.038248607531	0
18	526	0.038276607531	2
18	531	0.038940607531	0
18	542	0.038951845311	1
18	548	0.039255845311	0
18	559	0.039346845295	1
18	567	0.040010845295	0
18	573	0.040021294375	1
18	578	0.040325294375	0
18	596	0.046264353377	1
18	604	0.046928353377	0
18	610	0.046938608388	1
18	615	0.047242608388	0
18	622	0.047270608388	1
18	627	0.047934608388	0
18	636	0.047944608388	2
18	640	0.048248608388	0
18	647	0.048276608388	2
18	653	0.048940608388	0
18	664	0.048951847043	1
18	669	0.049255847043	0
18	677	0.049292847043	1
18	686	0.049956847043	0
18	692	0.049967296662	1
18	697	0.050271296662	0
18	717	0.056264353889	1
18	724	0.056928353889	0
18	730	0.056938609194	1
18	735	0.057242609194	0
18	742	0.057270609194	1
18	747	0.057934609194	0
18	756	0.057944609194	2
18	761	0.058248609194	0
18	768	0.058276609194	2
18	773	0.058940609194	0
18	784	0.058951848546	1
18	789	0.059255848546	0
18	798	0.059328848546	1
18	807	0.059992848546	0
18	813	0.060003298566	1
18	818	0.060307298566	0
18	839	0.066264354164	1
18	845	0.066928354164	0
18	851	0.066938609902	1
18	857	0.067242609902	0
18	864	0.067270609902	1
18	869	0.067934609902	0
18	878	0.067944609902	2
18	882	0.068248609902	0
18	889	0.068276609902	2
18	896	0.068940609902	0
18	907	0.068951850072	1
18	912	0.069255850072	0
18	920	0.069283850072	1
18	928	0.069947850072	0
18	934	0.069958300387	1
18	940	0.070262300387	0
18	960	0.076264354881	1
18	967	0.076928354881	0
18	973	0.076938610478	1
18	978	0.077242610478	0
18	985	0.077270610478	1
18	990	0.077934610478	0
18	999	0.077944610478	2
18	1004	0.078248610478	0
18	1011	0.078276610478	2
18	1016	0.078940610478	0
18	1027	0.078951851796	1
18	1033	0.079255851796	0
18	1043	0.079346851796	1
18	1051	0.080010851796	0
18	1057	0.080021302665	1
18	1063	0.080325302665	0
18	1081	0.086264355788	1
18	1088	0.086928355788	0
18	1094	0.086938611603	1
18	1099	0.087242611603	0
18	1106	0.087270611603	1
18	1111	0.087934611603	0
18	1120	0.087944611603	2
18	1125	0.088248611603	0
18	1132	0.088276611603	2
18	1138	0.088940611603	0
18	1149	0.088951854021	1
18	1154	0.089255854021	0
18	1163	0.089292854021	1
18	1173	0.089956854021	0
18	1179	0.08996730575	1
18	1184	0.09027130575	0
18	1204	0.096264356536	1
18	1210	0.096928356536	0
18	1216	0.096938612212	1
18	1222	0.097242612212	0
18	1229	0.097270612237	1
18	1235	0.097934612237	0
18	1244	0.097944612237	2
18	1248	0.098248612237	0
18	1255	0.098276612237	2
18	1261	0.098940612237	0
18	1272	0.098951854559	1
18	1277	0.099255854559	0
18	1285	0.099310854559	1
18	1294	0.099974854559	0
18	1300	0.099985307624	1
18	1305	0.100289307624	0
18	1325	0.106264357452	1
18	1332	0.106928357452	0
18	1338	0.106938612701	1
18	1343	0.107242612701	0
18	1350	0.107270612701	1
18	1356	0.107934612701	0
18	1365	0.107944612701	2
18	1369	0.108248612701	0
18	1376	0.108276612701	2
18	1382	0.108940612701	0
18	1393	0.108951855094	1
18	1398	0.109255855094	0
18	1407	0.109328855094	1
18	1416	0.109992855094	0
18	1422	0.110003309398	1
18	1427	0.110307309398	0
18	1445	0.116264358652	1
19	978	0.077242610478	0
20	206	0.013513525891	0.007277888928
20	324	0.019983580516	0.003747943553
20	442	0.029947578414	0.003711941451
20	566	0.040010578247	0.003774941284
20	685	0.049956579969	0.003720943006
20	806	0.059992581478	0.003756944515
20	927	0.069947583001	0.003711946038
20	1050	0.080010584387	0.003774947424
20	1172	0.089956586516	0.003720949553
20	1293	0.099974587646	0.003738950683
20	1415	0.109992588512	0.003756951549
23	10	0.006235636963	0
23	226	0.016235636963	1
23	347	0.026235636963	2
23	467	0.036235636963	3
23	588	0.046235636963	4
23	709	0.056235636963	5
23	831	0.066235636963	6
23	952	0.076235636963	7
23	1073	0.086235636963	8
23	1196	0.096235636963	9
23	1317	0.106235636963	10
23	1437	0.116235636963	11
24	206	0.013513525891	0
24	324	0.019983580516	1
24	442	0.029947578414	2
24	566	0.040010578247	3
24	685	0.049956579969	4
24	806	0.059992581478	5
24	927	0.069947583001	6
24	1050	0.080010584387	7
24	1172	0.089956586516	8
24	1293	0.099974587646	9
24	1415	0.109992588512	10
25	12	0.006235636963	1
30	0	0	0
32	91	0.009451581626	70
32	202	0.013513525891	118
32	320	0.019983580516	118
32	438	0.029947578414	118
32	562	0.040010578247	118
32	681	0.049956579969	118
32	802	0.059992581478	118
32	923	0.069947583001	118
32	1046	0.080010584387	118
32	1168	0.089956586516	118
32	1289	0.099974587646	118
32	1411	0.109992588512	118
33	16	0.006263636963	70
33	100	0.009461581626	14
33	111	0.009793581626	118
33	210	0.013523525891	14
33	231	0.016263636963	118
33	328	0.019993580516	14
33	352	0.026263636963	118
33	446	0.029957578414	14
33	472	0.036263636963	118
33	570	0.040020578247	14
33	593	0.046263636963	118
33	689	0.049966579969	14
33	714	0.056263636963	118
33	810	0.060002581478	14
33	836	0.066263636963	118
33	931	0.069957583001	14
33	957	0.076263636963	118
33	1054	0.080020584387	14
33	1078	0.086263636963	118
33	1176	0.089966586516	14
33	1201	0.096263636963	118
33	1297	0.099984587646	14
33	1322	0.106263636963	118
33	1419	0.110002588512	14
33	1442	0.116263636963	118
34	15	0.006235636963	70
34	96	0.009451581626	118
34	230	0.016235636963	118
34	351	0.026235636963	118
34	471	0.036235636963	118
34	592	0.046235636963	118
34	713	0.056235636963	118
34	835	0.066235636963	118
34	956	0.076235636963	118
34	1077	0.086235636963	118
34	1200	0.096235636963	118
34	1321	0.106235636963	118
34	1441	0.116235636963	118
35	34	0.007050342349	14
35	49	0.008100342349	70
35	70	0.008601327205	70
35	79	0.008915581626	14
35	91	0.009451581626	70
35	132	0.01077228652	14
35	146	0.01147328652	118
35	165	0.011788271466	14
35	179	0.012498271466	118
35	189	0.012812525972	14
35	202	0.013513525891	118
35	250	0.017242341318	14
35	263	0.017934341318	118
35	282	0.018249326529	14
35	297	0.018941326529	118
35	306	0.019255580516	14
35	320	0.019983580516	118
35	372	0.027242340296	14
35	384	0.027934340296	118
35	404	0.028249324646	14
35	417	0.028941324481	118
35	426	0.029255578414	14
35	438	0.029947578414	118
35	490	0.037242340323	14
35	504	0.037934340323	118
35	523	0.038249323599	14
35	537	0.038941323599	118
35	547	0.039255578148	14
35	562	0.040010578247	118
35	613	0.047242341351	14
35	625	0.047934341351	118
35	644	0.048249324952	14
35	659	0.048941324952	118
35	668	0.049255579969	14
35	681	0.049956579969	118
35	733	0.057242342183	14
35	745	0.057934342183	118
35	765	0.058249326271	14
35	779	0.058941326199	118
35	788	0.059255581478	14
35	802	0.059992581478	118
35	855	0.067242342785	14
35	867	0.06793434291	118
35	886	0.068249327156	14
35	902	0.068941327156	118
35	911	0.069255583001	14
35	923	0.069947583001	118
35	976	0.077242343039	14
35	988	0.077934343039	118
35	1008	0.078249328597	14
35	1022	0.078941328666	118
35	1032	0.079255584245	14
35	1046	0.080010584387	118
35	1097	0.087242344064	14
35	1109	0.087934344064	118
35	1129	0.088249330551	14
35	1144	0.088941330684	118
35	1153	0.089255586516	14
35	1168	0.089956586516	118
35	1220	0.097242345217	14
35	1233	0.097934345217	118
35	1252	0.098249332035	14
35	1267	0.098941332035	118
35	1276	0.099255587646	14
35	1289	0.099974587646	118
35	1341	0.107242346197	14
35	1354	0.107934346197	118
35	1373	0.108249333369	14
35	1388	0.108941333369	118
35	1397	0.109255588512	14
35	1411	0.109992588512	118
36	0	0	2000000
37	0	0	0
38	0	0	0
38	17	0.006263636963	2
38	20	0.006735636963	0
38	30	0.006746342349	1
38	33	0.007050342349	0
38	43	0.007348342349	1
38	48	0.008100342349	0
38	62	0.008129327205	1
38	69	0.008601327205	0
38	74	0.008611581626	1
38	78	0.008915581626	0
38	86	0.008979581626	1
38	90	0.009451581626	0
38	101	0.009461581626	2
38	104	0.009765581626	0
38	112	0.009793581626	2
38	118	0.010457581626	0
38	128	0.01046828652	1
38	131	0.01077228652	0
38	141	0.01080928652	1
38	145	0.01147328652	0
38	159	0.011484271466	1
38	164	0.011788271466	0
38	172	0.011834271466	1
38	178	0.012498271466	0
38	183	0.012508525972	1
38	188	0.012812525972	0
38	197	0.012849525891	1
38	201	0.013513525891	0
38	211	0.013523525891	2
38	214	0.013827525891	0
38	232	0.016263636963	2
38	236	0.016927636963	0
38	246	0.016938341318	1
38	249	0.017242341318	0
38	258	0.017270341318	1
38	262	0.017934341318	0
38	276	0.017945326529	1
38	281	0.018249326529	0
38	289	0.018277326529	1
38	296	0.018941326529	0
38	301	0.018951580516	1
38	305	0.019255580516	0
38	315	0.019319580516	1
38	319	0.019983580516	0
38	329	0.019993580516	2
38	332	0.020297580516	0
38	353	0.026263636963	2
38	358	0.026927636963	0
38	368	0.026938340296	1
38	371	0.027242340296	0
38	380	0.027270340296	1
38	383	0.027934340296	0
38	397	0.027945324646	1
38	403	0.028249324646	0
38	409	0.028277324481	1
38	416	0.028941324481	0
38	421	0.028951578414	1
38	425	0.029255578414	0
38	433	0.029283578414	1
38	437	0.029947578414	0
38	447	0.029957578414	2
38	450	0.030261578414	0
38	473	0.036263636963	2
38	476	0.036927636963	0
38	486	0.036938340323	1
38	489	0.037242340323	0
38	498	0.037270340323	1
38	503	0.037934340323	0
38	517	0.037945323599	1
38	522	0.038249323599	0
38	530	0.038277323599	1
38	536	0.038941323599	0
38	541	0.038951578148	1
38	546	0.039255578148	0
38	558	0.039346578247	1
38	561	0.040010578247	0
38	571	0.040020578247	2
38	574	0.040324578247	0
38	594	0.046263636963	2
38	599	0.046927636963	0
38	609	0.046938341351	1
38	612	0.047242341351	0
38	621	0.047270341351	1
38	624	0.047934341351	0
38	638	0.047945324952	1
38	643	0.048249324952	0
38	651	0.048277324952	1
38	658	0.048941324952	0
38	663	0.048951579969	1
38	667	0.049255579969	0
38	676	0.049292579969	1
38	680	0.049956579969	0
38	690	0.049966579969	2
38	693	0.050270579969	0
38	715	0.056263636963	2
38	719	0.056927636963	0
38	729	0.056938342183	1
38	732	0.057242342183	0
38	741	0.057270342183	1
38	744	0.057934342183	0
38	758	0.057945326271	1
38	764	0.058249326271	0
38	771	0.058277326199	1
38	778	0.058941326199	0
38	783	0.058951581478	1
38	787	0.059255581478	0
38	797	0.059328581478	1
38	801	0.059992581478	0
38	811	0.060002581478	2
38	814	0.060306581478	0
38	837	0.066263636963	2
38	840	0.066927636963	0
38	850	0.066938342785	1
38	854	0.067242342785	0
38	863	0.06727034291	1
38	866	0.06793434291	0
38	880	0.067945327156	1
38	885	0.068249327156	0
38	893	0.068277327156	1
38	901	0.068941327156	0
38	906	0.068951583001	1
38	910	0.069255583001	0
38	918	0.069283583001	1
38	922	0.069947583001	0
38	932	0.069957583001	2
38	936	0.070261583001	0
38	958	0.076263636963	2
38	962	0.076927636963	0
38	972	0.076938343039	1
38	975	0.077242343039	0
38	984	0.077270343039	1
38	987	0.077934343039	0
38	1001	0.077945328597	1
38	1007	0.078249328597	0
38	1015	0.078277328666	1
38	1021	0.078941328666	0
38	1026	0.078951584245	1
38	1031	0.079255584245	0
38	1042	0.079346584387	1
38	1045	0.080010584387	0
38	1055	0.080020584387	2
38	1059	0.080324584387	0
38	1079	0.086263636963	2
38	1083	0.086927636963	0
38	1093	0.086938344064	1
38	1096	0.087242344064	0
38	1105	0.087270344064	1
38	1108	0.087934344064	0
38	1122	0.087945330551	1
38	1128	0.088249330551	0
38	1136	0.088277330684	1
38	1143	0.088941330684	0
38	1148	0.088951586516	1
38	1152	0.089255586516	0
38	1162	0.089292586516	1
38	1167	0.089956586516	0
38	1177	0.089966586516	2
38	1180	0.090270586516	0
38	1202	0.096263636963	2
38	1205	0.096927636963	0
38	1215	0.096938345217	1
38	1219	0.097242345217	0
38	1228	0.097270345217	1
38	1232	0.097934345217	0
38	1246	0.097945332035	1
38	1251	0.098249332035	0
38	1259	0.098277332035	1
38	1266	0.098941332035	0
38	1271	0.098951587646	1
38	1275	0.099255587646	0
38	1284	0.099310587646	1
38	1288	0.099974587646	0
38	1298	0.099984587646	2
38	1301	0.100288587646	0
38	1323	0.106263636963	2
38	1327	0.106927636963	0
38	1337	0.106938346197	1
38	1340	0.107242346197	0
38	1349	0.107270346197	1
38	1353	0.107934346197	0
38	1367	0.107945333369	1
38	1372	0.108249333369	0
38	1380	0.108277333369	1
38	1387	0.108941333369	0
38	1392	0.108951588512	1
38	1396	0.109255588512	0
38	1406	0.109328588512	1
38	1410	0.109992588512	0
38	1420	0.110002588512	2
38	1423	0.110306588512	0
38	1443	0.116263636963	2
39	1007	0.078249328597	0
40	0	0	0
42	22	0.006735989656	70
42	66	0.008601229138	70
42	120	0.010457934114	118
42	175	0.012498173566	118
42	238	0.01692798917	118
42	293	0.018941228505	118
42	360	0.026927988689	118
42	413	0.02894122684	118
42	478	0.036927988643	118
42	533	0.038941226421	118
42	601	0.046927989079	118
42	655	0.048941227697	118
42	721	0.056927989573	118
42	775	0.058941228815	118
42	842	0.066927989874	118
42	898	0.06894122993	118
42	964	0.076927989931	118
42	1018	0.078941231137	118
42	1085	0.086927990438	118
42	1140	0.088941232812	118
42	1207	0.09692799109	118
42	1263	0.098941233384	118
42	1329	0.10692799158	118
42	1384	0.108941233822	118
43	28	0.006745989656	14
43	41	0.007347989656	70
43	72	0.008611229138	14
43	84	0.008979229138	70
43	126	0.010467934114	14
43	139	0.010808934114	118
43	181	0.012508173566	14
43	195	0.012849173566	118
43	244	0.01693798917	14
43	255	0.01726998917	118
43	299	0.018951228505	14
43	313	0.019319228505	118
43	366	0.026937988689	14
43	377	0.027269988689	118
43	419	0.02895122684	14
43	430	0.02928322684	118
43	484	0.036937988643	14
43	495	0.037269988643	118
43	539	0.038951226421	14
43	556	0.039346226421	118
43	607	0.046937989079	14
43	618	0.047269989079	118
43	661	0.048951227697	14
43	674	0.049292227697	118
43	727	0.056937989573	14
43	738	0.057269989573	118
43	781	0.058951228815	14
43	795	0.059328228815	118
43	848	0.066937989874	14
43	860	0.067269989874	118
43	904	0.06895122993	14
43	915	0.06928322993	118
43	970	0.076937989931	14
43	981	0.077269989931	118
43	1024	0.078951231137	14
43	1040	0.079346231137	118
43	1091	0.086937990438	14
43	1102	0.087269990438	118
43	1146	0.088951232812	14
43	1159	0.089292232812	118
43	1213	0.09693799109	14
43	1225	0.09726999109	118
43	1269	0.098951233384	14
43	1282	0.099310233384	118
43	1335	0.10693799158	14
43	1346	0.10726999158	118
43	1390	0.108951233822	14
43	1404	0.109328233822	118
44	24	0.006735989656	70
44	68	0.008601229138	70
44	122	0.010457934114	118
44	177	0.012498173566	118
44	240	0.01692798917	118
44	295	0.018941228505	118
44	362	0.026927988689	118
44	415	0.02894122684	118
44	480	0.036927988643	118
44	535	0.038941226421	118
44	603	0.046927989079	118
44	657	0.048941227697	118
44	723	0.056927989573	118
44	777	0.058941228815	118
44	844	0.066927989874	118
44	900	0.06894122993	118
44	966	0.076927989931	118
44	1020	0.078941231137	118
44	1087	0.086927990438	118
44	1142	0.088941232812	118
44	1209	0.09692799109	118
44	1265	0.098941233384	118
44	1331	0.10692799158	118
44	1386	0.108941233822	118
45	22	0.006735989656	70
45	66	0.008601229138	70
45	107	0.009765934114	14
45	120	0.010457934114	118
45	163	0.011788173566	14
45	175	0.012498173566	118
45	217	0.013827878216	14
45	238	0.01692798917	118
45	280	0.018249228505	14
45	293	0.018941228505	118
45	335	0.020297932527	14
45	360	0.026927988689	118
45	402	0.028249226991	14
45	413	0.02894122684	118
45	453	0.030261929988	14
45	478	0.036927988643	118
45	521	0.038249226421	14
45	533	0.038941226421	118
45	577	0.040324930073	14
45	601	0.046927989079	118
45	642	0.048249227697	14
45	655	0.048941227697	118
45	696	0.050270932325	14
45	721	0.056927989573	118
45	763	0.058249228815	14
45	775	0.058941228815	118
45	817	0.060306934193	14
45	842	0.066927989874	118
45	884	0.06824922993	14
45	898	0.06894122993	118
45	939	0.070261936072	14
45	964	0.076927989931	118
45	1006	0.078249231025	14
45	1018	0.078941231137	118
45	1062	0.080324937637	14
45	1085	0.086927990438	118
45	1127	0.088249232768	14
45	1140	0.088941232812	118
45	1183	0.090270940244	14
45	1207	0.09692799109	118
45	1250	0.098249233384	14
45	1263	0.098941233384	118
45	1304	0.100288941995	14
45	1329	0.10692799158	118
45	1371	0.108249233822	14
45	1384	0.108941233822	118
45	1426	0.110306943259	14
46	0	0	2000000
47	0	0	0
48	0	0	0
48	18	0.006263989656	1
48	21	0.006735989656	0
48	29	0.006745989656	2
48	32	0.007049989656	0
48	42	0.007347989656	2
48	47	0.008099989656	0
48	61	0.008129229138	1
48	65	0.008601229138	0
48	73	0.008611229138	2
48	76	0.008915229138	0
48	85	0.008979229138	2
48	89	0.009451229138	0
48	102	0.009461934114	1
48	106	0.009765934114	0
48	114	0.009793934114	1
48	119	0.010457934114	0
48	127	0.010467934114	2
48	130	0.010771934114	0
48	140	0.010808934114	2
48	144	0.011472934114	0
48	158	0.011484173566	1
48	162	0.011788173566	0
48	171	0.011834173566	1
48	174	0.012498173566	0
48	182	0.012508173566	2
48	186	0.012812173566	0
48	196	0.012849173566	2
48	200	0.013513173566	0
48	212	0.013523878216	1
48	216	0.013827878216	0
48	233	0.01626398917	1
48	237	0.01692798917	0
48	245	0.01693798917	2
48	248	0.01724198917	0
48	256	0.01726998917	2
48	261	0.01793398917	0
48	275	0.017945228505	1
48	279	0.018249228505	0
48	287	0.018277228505	1
48	292	0.018941228505	0
48	300	0.018951228505	2
48	303	0.019255228505	0
48	314	0.019319228505	2
48	318	0.019983228505	0
48	330	0.019993932527	1
48	334	0.020297932527	0
48	354	0.026263988689	1
48	359	0.026927988689	0
48	367	0.026937988689	2
48	370	0.027241988689	0
48	378	0.027269988689	2
48	382	0.027933988689	0
48	396	0.027945226991	1
48	401	0.028249226991	0
48	408	0.02827722684	1
48	412	0.02894122684	0
48	420	0.02895122684	2
48	423	0.02925522684	0
48	431	0.02928322684	2
48	436	0.02994722684	0
48	448	0.029957929988	1
48	452	0.030261929988	0
48	474	0.036263988643	1
48	477	0.036927988643	0
48	485	0.036937988643	2
48	488	0.037241988643	0
48	496	0.037269988643	2
48	502	0.037933988643	0
48	516	0.037945226421	1
48	520	0.038249226421	0
48	528	0.038277226421	1
48	532	0.038941226421	0
48	540	0.038951226421	2
48	544	0.039255226421	0
48	557	0.039346226421	2
48	560	0.040010226421	0
48	572	0.040020930073	1
48	576	0.040324930073	0
48	595	0.046263989079	1
48	600	0.046927989079	0
48	608	0.046937989079	2
48	611	0.047241989079	0
48	619	0.047269989079	2
48	623	0.047933989079	0
48	637	0.047945227697	1
48	641	0.048249227697	0
48	649	0.048277227697	1
48	654	0.048941227697	0
48	662	0.048951227697	2
48	665	0.049255227697	0
48	675	0.049292227697	2
48	679	0.049956227697	0
48	691	0.049966932325	1
48	695	0.050270932325	0
48	716	0.056263989573	1
48	720	0.056927989573	0
48	728	0.056937989573	2
48	731	0.057241989573	0
48	739	0.057269989573	2
48	743	0.057933989573	0
48	757	0.057945228815	1
48	762	0.058249228815	0
48	770	0.058277228815	1
48	774	0.058941228815	0
48	782	0.058951228815	2
48	785	0.059255228815	0
48	796	0.059328228815	2
48	800	0.059992228815	0
48	812	0.060002934193	1