version 2
run Que10-0-20140513-12:52:57-26122
attr configname Que10
attr datetime 20140513-12:52:57
attr experiment Que10
attr inifile omnetpp.ini
attr iterationvars ""
attr iterationvars2 $repetition=0
attr measurement ""
attr network Experience1
attr processid 26122
attr repetition 0
attr replication #0
attr resultdir results
attr runnumber 0
attr seedset 0

vector 191  Experience1.client1.ppp[0].queue  queueLength:vector  ETV
attr interpolationmode  sample-hold
attr title  "queue length, vector"
vector 192  Experience1.client1.ppp[0].ppp  txState:vector  ETV
attr interpolationmode  sample-hold
attr title  "tx state, vector"
vector 217  Experience1.client2.ppp[0].queue  queueLength:vector  ETV
attr interpolationmode  sample-hold
attr title  "queue length, vector"
vector 218  Experience1.client2.ppp[0].ppp  txState:vector  ETV
attr interpolationmode  sample-hold
attr title  "tx state, vector"
vector 242  Experience1.server.ppp[0].queue  queueLength:vector  ETV
attr interpolationmode  sample-hold
attr title  "queue length, vector"
vector 243  Experience1.server.ppp[0].ppp  txState:vector  ETV
attr interpolationmode  sample-hold
attr title  "tx state, vector"
vector 258  Experience1.router.ppp[0].queue  queueLength:vector  ETV
attr interpolationmode  sample-hold
attr title  "queue length, vector"
vector 259  Experience1.router.ppp[0].ppp  txState:vector  ETV
attr interpolationmode  sample-hold
attr title  "tx state, vector"
vector 269  Experience1.router.ppp[1].queue  queueLength:vector  ETV
attr interpolationmode  sample-hold
attr title  "queue length, vector"
vector 270  Experience1.router.ppp[1].ppp  txState:vector  ETV
attr interpolationmode  sample-hold
attr title  "tx state, vector"
vector 280  Experience1.router.ppp[2].queue  queueLength:vector  ETV
attr interpolationmode  sample-hold
attr title  "queue length, vector"
vector 281  Experience1.router.ppp[2].ppp  txState:vector  ETV
attr interpolationmode  sample-hold
attr title  "tx state, vector"
vector 327  Experience1.client1.tcp  tcpRcvQueueBytes  ETV
vector 314  Experience1.client1.tcp  "advertised window"  ETV
vector 313  Experience1.client1.tcp  "receive window"  ETV
vector 316  Experience1.client1.tcp  "sent ack"  ETV
vector 188  Experience1.client1.ppp[0].queue  rcvdPk:vector(packetBytes)  ETV
attr interpolationmode  none
attr title  "received packets, vector(packetBytes)"
vector 190  Experience1.client1.ppp[0].queue  queueingTime:vector  ETV
attr interpolationmode  none
attr title  "queueing time, vector"
vector 197  Experience1.client1.ppp[0].ppp  rcvdPkFromHL:vector(packetBytes)  ETV
attr interpolationmode  none
attr source  packetReceivedFromUpper
attr title  "packets received from higher layer, vector(packetBytes)"
vector 193  Experience1.client1.ppp[0].ppp  txPk:vector(packetBytes)  ETV
attr interpolationmode  none
attr source  packetSentToLower
attr title  "packets transmitted, vector(packetBytes)"
vector 261  Experience1.router.ppp[0].ppp  rxPkOk:vector(packetBytes)  ETV
attr interpolationmode  none
attr source  rxPkOk
attr title  "packets received OK, vector(packetBytes)"
vector 265  Experience1.router.ppp[0].ppp  passedUpPk:vector(packetBytes)  ETV
attr interpolationmode  none
attr source  packetSentToUpper
attr title  "packets passed to higher layer, vector(packetBytes)"
vector 277  Experience1.router.ppp[2].queue  rcvdPk:vector(packetBytes)  ETV
attr interpolationmode  none
attr title  "received packets, vector(packetBytes)"
vector 279  Experience1.router.ppp[2].queue  queueingTime:vector  ETV
attr interpolationmode  none
attr title  "queueing time, vector"
vector 286  Experience1.router.ppp[2].ppp  rcvdPkFromHL:vector(packetBytes)  ETV
attr interpolationmode  none
attr source  packetReceivedFromUpper
attr title  "packets received from higher layer, vector(packetBytes)"
vector 282  Experience1.router.ppp[2].ppp  txPk:vector(packetBytes)  ETV
attr interpolationmode  none
attr source  packetSentToLower
attr title  "packets transmitted, vector(packetBytes)"
vector 245  Experience1.server.ppp[0].ppp  rxPkOk:vector(packetBytes)  ETV
attr interpolationmode  none
attr source  rxPkOk
attr title  "packets received OK, vector(packetBytes)"
vector 249  Experience1.server.ppp[0].ppp  passedUpPk:vector(packetBytes)  ETV
attr interpolationmode  none
attr source  packetSentToUpper
attr title  "packets passed to higher layer, vector(packetBytes)"
vector 293  Experience1.server.tcp  "rcvd seq"  ETV
vector 294  Experience1.server.tcp  "rcvd ack"  ETV
vector 290  Experience1.server.tcp  "advertised window"  ETV
vector 288  Experience1.server.tcp  "send window"  ETV
vector 303  Experience1.server.tcp  tcpRcvQueueBytes  ETV
vector 289  Experience1.server.tcp  "receive window"  ETV
vector 292  Experience1.server.tcp  "sent ack"  ETV
vector 239  Experience1.server.ppp[0].queue  rcvdPk:vector(packetBytes)  ETV
attr interpolationmode  none
attr title  "received packets, vector(packetBytes)"
vector 241  Experience1.server.ppp[0].queue  queueingTime:vector  ETV
attr interpolationmode  none
attr title  "queueing time, vector"
vector 248  Experience1.server.ppp[0].ppp  rcvdPkFromHL:vector(packetBytes)  ETV
attr interpolationmode  none
attr source  packetReceivedFromUpper
attr title  "packets received from higher layer, vector(packetBytes)"
vector 244  Experience1.server.ppp[0].ppp  txPk:vector(packetBytes)  ETV
attr interpolationmode  none
attr source  packetSentToLower
attr title  "packets transmitted, vector(packetBytes)"
vector 283  Experience1.router.ppp[2].ppp  rxPkOk:vector(packetBytes)  ETV
attr interpolationmode  none
attr source  rxPkOk
attr title  "packets received OK, vector(packetBytes)"
vector 287  Experience1.router.ppp[2].ppp  passedUpPk:vector(packetBytes)  ETV
attr interpolationmode  none
attr source  packetSentToUpper
attr title  "packets passed to higher layer, vector(packetBytes)"
vector 255  Experience1.router.ppp[0].queue  rcvdPk:vector(packetBytes)  ETV
attr interpolationmode  none
attr title  "received packets, vector(packetBytes)"
vector 257  Experience1.router.ppp[0].queue  queueingTime:vector  ETV
attr interpolationmode  none
attr title  "queueing time, vector"
vector 264  Experience1.router.ppp[0].ppp  rcvdPkFromHL:vector(packetBytes)  ETV
attr interpolationmode  none
attr source  packetReceivedFromUpper
attr title  "packets received from higher layer, vector(packetBytes)"
vector 260  Experience1.router.ppp[0].ppp  txPk:vector(packetBytes)  ETV
attr interpolationmode  none
attr source  packetSentToLower
attr title  "packets transmitted, vector(packetBytes)"
vector 194  Experience1.client1.ppp[0].ppp  rxPkOk:vector(packetBytes)  ETV
attr interpolationmode  none
attr source  rxPkOk
attr title  "packets received OK, vector(packetBytes)"
vector 198  Experience1.client1.ppp[0].ppp  passedUpPk:vector(packetBytes)  ETV
attr interpolationmode  none
attr source  packetSentToUpper
attr title  "packets passed to higher layer, vector(packetBytes)"
vector 317  Experience1.client1.tcp  "rcvd seq"  ETV
vector 318  Experience1.client1.tcp  "rcvd ack"  ETV
vector 312  Experience1.client1.tcp  "send window"  ETV
vector 295  Experience1.server.tcp  "unacked bytes"  ETV
vector 199  Experience1.client2.udpApp[0]  sentPk:vector(packetBytes)  ETV
attr interpolationmode  none
attr source  sentPk
attr title  "packets sent, vector(packetBytes)"
vector 204  Experience1.client2.udp  sentPk:vector(packetBytes)  ETV
attr interpolationmode  none
attr source  sentPk
attr title  "packets sent, vector(packetBytes)"
vector 214  Experience1.client2.ppp[0].queue  rcvdPk:vector(packetBytes)  ETV
attr interpolationmode  none
attr title  "received packets, vector(packetBytes)"
vector 216  Experience1.client2.ppp[0].queue  queueingTime:vector  ETV
attr interpolationmode  none
attr title  "queueing time, vector"
vector 223  Experience1.client2.ppp[0].ppp  rcvdPkFromHL:vector(packetBytes)  ETV
attr interpolationmode  none
attr source  packetReceivedFromUpper
attr title  "packets received from higher layer, vector(packetBytes)"
vector 219  Experience1.client2.ppp[0].ppp  txPk:vector(packetBytes)  ETV
attr interpolationmode  none
attr source  packetSentToLower
attr title  "packets transmitted, vector(packetBytes)"
vector 272  Experience1.router.ppp[1].ppp  rxPkOk:vector(packetBytes)  ETV
attr interpolationmode  none
attr source  rxPkOk
attr title  "packets received OK, vector(packetBytes)"
vector 276  Experience1.router.ppp[1].ppp  passedUpPk:vector(packetBytes)  ETV
attr interpolationmode  none
attr source  packetSentToUpper
attr title  "packets passed to higher layer, vector(packetBytes)"
vector 230  Experience1.server.udp  rcvdPk:vector(packetBytes)  ETV
attr interpolationmode  none
attr source  rcvdPk
attr title  "packets received, vector(packetBytes)"
vector 231  Experience1.server.udp  passedUpPk:vector(count)  ETV
attr interpolationmode  none
attr title  "packets passed up, vector(count)"
vector 227  Experience1.server.udpApp[0]  rcvdPk:vector(packetBytes)  ETV
attr interpolationmode  none
attr source  rcvdPk
attr title  "packets received, vector(packetBytes)"
vector 228  Experience1.server.udpApp[0]  endToEndDelay:vector  ETV
attr interpolationmode  none
attr source  messageAge(rcvdPk)
attr title  "end-to-end delay, vector"
attr unit  s
vector 181  Experience1.client1.tcpApp[0]  sentPk:vector(packetBytes)  ETV
attr interpolationmode  none
attr source  sentPk
attr title  "packets sent, vector(packetBytes)"
vector 315  Experience1.client1.tcp  "sent seq"  ETV
vector 319  Experience1.client1.tcp  "unacked bytes"  ETV
vector 296  Experience1.server.tcp  "rcvd dupAcks"  ETV
vector 225  Experience1.server.tcpApp[0]  rcvdPk:vector(packetBytes)  ETV
attr interpolationmode  none
attr source  rcvdPk
attr title  "packets received, vector(packetBytes)"
vector 226  Experience1.server.tcpApp[0]  endToEndDelay:vector  ETV
attr interpolationmode  none
attr source  messageAge(rcvdPk)
attr title  "end-to-end delay, vector"
attr unit  s
vector 331  Experience1.client1.tcp  "measured RTT"  ETV
vector 332  Experience1.client1.tcp  "smoothed RTT"  ETV
vector 333  Experience1.client1.tcp  RTTVAR  ETV
vector 334  Experience1.client1.tcp  RTO  ETV
vector 329  Experience1.client1.tcp  cwnd  ETV
vector 320  Experience1.client1.tcp  "rcvd dupAcks"  ETV
vector 278  Experience1.router.ppp[2].queue  dropPk:vector(packetBytes)  ETV
attr interpolationmode  none
attr source  dropPkByQueue
attr title  "dropped packets, vector(packetBytes)"
vector 300  Experience1.server.tcp  "rcvd oooseg"  ETV
181	1721	1	104857600
188	19	0	44
188	44	0.060888	40
188	1724	1	1064
188	1884	1.070668705881	1064
188	1885	1.070668705881	1064
188	2066	1.142668705881	1064
188	2067	1.142668705881	1064
188	2086	1.147708705881	1064
188	2087	1.147708705881	1064
188	2281	1.214668705881	1064
188	2282	1.214668705881	1064
188	2305	1.219708705881	1064
188	2306	1.219708705881	1064
188	2349	1.229732235292	1064
188	2350	1.229732235292	1064
188	2367	1.234772235292	1064
188	2368	1.234772235292	1064
188	2550	1.286668705881	1064
188	2551	1.286668705881	1064
188	2574	1.291708705881	1064
188	2575	1.291708705881	1064
188	2628	1.301732235292	1064
188	2629	1.301732235292	1064
188	2654	1.306772235292	1064
188	2655	1.306772235292	1064
188	2708	1.316795764703	1064
188	2709	1.316795764703	1064
188	2755	1.326819294114	1064
188	2756	1.326819294114	1064
188	2781	1.331859294114	1064
188	2782	1.331859294114	1064
188	2829	1.341882823525	1064
188	2830	1.341882823525	1064
188	2954	1.37184047058	1064
188	2955	1.37184047058	1064
188	2980	1.37688047058	1064
188	2981	1.37688047058	1064
188	3032	1.386903999991	1064
188	3033	1.386903999991	1064
188	3059	1.391943999991	1064
188	3060	1.391943999991	1064
188	3113	1.401967529402	1064
188	3114	1.401967529402	1064
188	3167	1.411991058813	1064
188	3168	1.411991058813	1064
188	3199	1.417031058813	1064
188	3200	1.417031058813	1064
188	3254	1.427054588224	1064
188	3255	1.427054588224	1064
188	3287	1.432094588224	1064
188	3288	1.432094588224	1064
188	3339	1.442118117635	1064
188	3340	1.442118117635	1064
188	3370	1.447158117635	1064
188	3371	1.447158117635	1064
188	3405	1.452198117635	1064
188	3406	1.452198117635	1064
188	3425	1.457238117635	1064
188	3426	1.457238117635	1064
188	3456	1.462278117635	1064
188	3457	1.462278117635	1064
190	19	0	0
190	44	0.060888	0
190	1724	1	0
190	1884	1.070668705881	0
190	1893	1.07495270588	0.004283999999
190	2066	1.142668705881	0
190	2075	1.14695270588	0.004283999999
190	2094	1.151236705879	0.003527999998
190	2105	1.155520705878	0.007811999997
190	2281	1.214668705881	0
190	2290	1.21895270588	0.004283999999
190	2314	1.223236705879	0.003527999998
190	2330	1.227520705878	0.007811999997
190	2353	1.231804705877	0.002072470585
190	2378	1.236088705876	0.006356470584
190	2386	1.240372705875	0.005600470583
190	2405	1.244656705874	0.009884470582
190	2550	1.286668705881	0
190	2557	1.29095270588	0.004283999999
190	2582	1.295236705879	0.003527999998
190	2603	1.299520705878	0.007811999997
190	2630	1.303804705877	0.002072470585
190	2662	1.308088705876	0.006356470584
190	2678	1.312372705875	0.005600470583
190	2701	1.316656705874	0.009884470582
190	2715	1.320940705873	0.00414494117
190	2739	1.325224705872	0.008428941169
190	2758	1.329508705871	0.002689411757
190	2789	1.33379270587	0.006973411756
190	2801	1.338076705869	0.006217411755
190	2831	1.342360705868	0.010501411754
190	2849	1.346644705867	0.004761882342
190	2860	1.350928705866	0.009045882341
190	2954	1.37184047058	0
190	2962	1.376124470579	0.004283999999
190	2991	1.380408470578	0.003527999998
190	3009	1.384692470577	0.007811999997
190	3039	1.388976470576	0.002072470585
190	3063	1.393260470575	0.006356470584
190	3086	1.397544470574	0.005600470583
190	3105	1.401828470573	0.009884470582
190	3127	1.406112470572	0.00414494117
190	3147	1.410396470571	0.008428941169
190	3174	1.41468047057	0.002689411757
190	3205	1.418964470569	0.006973411756
190	3230	1.423248470568	0.006217411755
190	3256	1.427532470567	0.010501411754
190	3266	1.431816470566	0.004761882342
190	3302	1.436100470565	0.009045882341
190	3319	1.440384470564	0.00828988234
190	3350	1.444668470563	0.012573882339
190	3374	1.448952470562	0.006834352927
190	3408	1.453236470561	0.011118352926
190	3427	1.45752047056	0.010362352925
190	3440	1.461804470559	0.014646352924
190	3462	1.466088470558	0.013890352923
190	3481	1.470372470557	0.018174352922
190	3504	1.474656470556	0.017418352921
190	3520	1.478940470555	0.02170235292
191	0	0	0
191	1885	1.070668705881	1
191	1893	1.07495270588	0
191	2067	1.142668705881	1
191	2075	1.14695270588	0
191	2086	1.147708705881	1
191	2087	1.147708705881	2
191	2094	1.151236705879	1
191	2105	1.155520705878	0
191	2282	1.214668705881	1
191	2290	1.21895270588	0
191	2305	1.219708705881	1
191	2306	1.219708705881	2
191	2314	1.223236705879	1
191	2330	1.227520705878	0
191	2349	1.229732235292	1
191	2350	1.229732235292	2
191	2353	1.231804705877	1
191	2367	1.234772235292	2
191	2368	1.234772235292	3
191	2378	1.236088705876	2
191	2386	1.240372705875	1
191	2405	1.244656705874	0
191	2551	1.286668705881	1
191	2557	1.29095270588	0
191	2574	1.291708705881	1
191	2575	1.291708705881	2
191	2582	1.295236705879	1
191	2603	1.299520705878	0
191	2628	1.301732235292	1
191	2629	1.301732235292	2
191	2630	1.303804705877	1
191	2654	1.306772235292	2
191	2655	1.306772235292	3
191	2662	1.308088705876	2
191	2678	1.312372705875	1
191	2701	1.316656705874	0
191	2708	1.316795764703	1
191	2709	1.316795764703	2
191	2715	1.320940705873	1
191	2739	1.325224705872	0
191	2755	1.326819294114	1
191	2756	1.326819294114	2
191	2758	1.329508705871	1
191	2781	1.331859294114	2
191	2782	1.331859294114	3
191	2789	1.33379270587	2
191	2801	1.338076705869	1
191	2829	1.341882823525	2
191	2830	1.341882823525	3
191	2831	1.342360705868	2
191	2849	1.346644705867	1
191	2860	1.350928705866	0
191	2955	1.37184047058	1
191	2962	1.376124470579	0
191	2980	1.37688047058	1
191	2981	1.37688047058	2
191	2991	1.380408470578	1
191	3009	1.384692470577	0
191	3032	1.386903999991	1
191	3033	1.386903999991	2
191	3039	1.388976470576	1
191	3059	1.391943999991	2
191	3060	1.391943999991	3
191	3063	1.393260470575	2
191	3086	1.397544470574	1
191	3105	1.401828470573	0
191	3113	1.401967529402	1
191	3114	1.401967529402	2
191	3127	1.406112470572	1
191	3147	1.410396470571	0
191	3167	1.411991058813	1
191	3168	1.411991058813	2
191	3174	1.41468047057	1
191	3199	1.417031058813	2
191	3200	1.417031058813	3
191	3205	1.418964470569	2
191	3230	1.423248470568	1
191	3254	1.427054588224	2
191	3255	1.427054588224	3
191	3256	1.427532470567	2
191	3266	1.431816470566	1
191	3287	1.432094588224	2
191	3288	1.432094588224	3
191	3302	1.436100470565	2
191	3319	1.440384470564	1
191	3339	1.442118117635	2
191	3340	1.442118117635	3
191	3350	1.444668470563	2
191	3370	1.447158117635	3
191	3371	1.447158117635	4
191	3374	1.448952470562	3
191	3405	1.452198117635	4
191	3406	1.452198117635	5
191	3408	1.453236470561	4
191	3425	1.457238117635	5
191	3426	1.457238117635	6
191	3427	1.45752047056	5
191	3440	1.461804470559	4
191	3456	1.462278117635	5
191	3457	1.462278117635	6
191	3462	1.466088470558	5
191	3481	1.470372470557	4
191	3504	1.474656470556	3
191	3520	1.478940470555	2
192	0	0	0
192	20	0	1
192	21	0.000204	0
192	45	0.060888	1
192	46	0.061076	0
192	1725	1	1
192	1740	1.004283999999	0
192	1886	1.070668705881	1
192	1893	1.07495270588	0
192	1894	1.07495270588	1
192	1905	1.079236705879	0
192	2068	1.142668705881	1
192	2075	1.14695270588	0
192	2076	1.14695270588	1
192	2094	1.151236705879	0
192	2095	1.151236705879	1
192	2105	1.155520705878	0
192	2106	1.155520705878	1
192	2117	1.159804705877	0
192	2283	1.214668705881	1
192	2290	1.21895270588	0
192	2291	1.21895270588	1
192	2314	1.223236705879	0
192	2315	1.223236705879	1
192	2330	1.227520705878	0
192	2331	1.227520705878	1
192	2353	1.231804705877	0
192	2354	1.231804705877	1
192	2378	1.236088705876	0
192	2379	1.236088705876	1
192	2386	1.240372705875	0
192	2387	1.240372705875	1
192	2405	1.244656705874	0
192	2406	1.244656705874	1
192	2413	1.248940705873	0
192	2552	1.286668705881	1
192	2557	1.29095270588	0
192	2558	1.29095270588	1
192	2582	1.295236705879	0
192	2583	1.295236705879	1
192	2603	1.299520705878	0
192	2604	1.299520705878	1
192	2630	1.303804705877	0
192	2631	1.303804705877	1
192	2662	1.308088705876	0
192	2663	1.308088705876	1
192	2678	1.312372705875	0
192	2679	1.312372705875	1
192	2701	1.316656705874	0
192	2702	1.316656705874	1
192	2715	1.320940705873	0
192	2716	1.320940705873	1
192	2739	1.325224705872	0
192	2740	1.325224705872	1
192	2758	1.329508705871	0
192	2759	1.329508705871	1
192	2789	1.33379270587	0
192	2790	1.33379270587	1
192	2801	1.338076705869	0
192	2802	1.338076705869	1
192	2831	1.342360705868	0
192	2832	1.342360705868	1
192	2849	1.346644705867	0
192	2850	1.346644705867	1
192	2860	1.350928705866	0
192	2861	1.350928705866	1
192	2875	1.355212705865	0
192	2956	1.37184047058	1
192	2962	1.376124470579	0
192	2963	1.376124470579	1
192	2991	1.380408470578	0
192	2992	1.380408470578	1
192	3009	1.384692470577	0
192	3010	1.384692470577	1
192	3039	1.388976470576	0
192	3040	1.388976470576	1
192	3063	1.393260470575	0
192	3064	1.393260470575	1
192	3086	1.397544470574	0
192	3087	1.397544470574	1
192	3105	1.401828470573	0
192	3106	1.401828470573	1
192	3127	1.406112470572	0
192	3128	1.406112470572	1
192	3147	1.410396470571	0
192	3148	1.410396470571	1
192	3174	1.41468047057	0
192	3175	1.41468047057	1
192	3205	1.418964470569	0
192	3206	1.418964470569	1
192	3230	1.423248470568	0
192	3231	1.423248470568	1
192	3256	1.427532470567	0
192	3257	1.427532470567	1
192	3266	1.431816470566	0
192	3267	1.431816470566	1
192	3302	1.436100470565	0
192	3303	1.436100470565	1
192	3319	1.440384470564	0
192	3320	1.440384470564	1
192	3350	1.444668470563	0
192	3351	1.444668470563	1
192	3374	1.448952470562	0
192	3375	1.448952470562	1
192	3408	1.453236470561	0
192	3409	1.453236470561	1
192	3427	1.45752047056	0
192	3428	1.45752047056	1
192	3440	1.461804470559	0
192	3441	1.461804470559	1
192	3462	1.466088470558	0
192	3463	1.466088470558	1
192	3481	1.470372470557	0
192	3482	1.470372470557	1
192	3504	1.474656470556	0
192	3505	1.474656470556	1
192	3520	1.478940470555	0
192	3521	1.478940470555	1
193	20	0	51
193	45	0.060888	47
193	1725	1	1071
193	1886	1.070668705881	1071
193	1894	1.07495270588	1071
193	2068	1.142668705881	1071
193	2076	1.14695270588	1071
193	2095	1.151236705879	1071
193	2106	1.155520705878	1071
193	2283	1.214668705881	1071
193	2291	1.21895270588	1071
193	2315	1.223236705879	1071
193	2331	1.227520705878	1071
193	2354	1.231804705877	1071
193	2379	1.236088705876	1071
193	2387	1.240372705875	1071
193	2406	1.244656705874	1071
193	2552	1.286668705881	1071
193	2558	1.29095270588	1071
193	2583	1.295236705879	1071
193	2604	1.299520705878	1071
193	2631	1.303804705877	1071
193	2663	1.308088705876	1071
193	2679	1.312372705875	1071
193	2702	1.316656705874	1071
193	2716	1.320940705873	1071
193	2740	1.325224705872	1071
193	2759	1.329508705871	1071
193	2790	1.33379270587	1071
193	2802	1.338076705869	1071
193	2832	1.342360705868	1071
193	2850	1.346644705867	1071
193	2861	1.350928705866	1071
193	2956	1.37184047058	1071
193	2963	1.376124470579	1071
193	2992	1.380408470578	1071
193	3010	1.384692470577	1071
193	3040	1.388976470576	1071
193	3064	1.393260470575	1071
193	3087	1.397544470574	1071
193	3106	1.401828470573	1071
193	3128	1.406112470572	1071
193	3148	1.410396470571	1071
193	3175	1.41468047057	1071
193	3206	1.418964470569	1071
193	3231	1.423248470568	1071
193	3257	1.427532470567	1071
193	3267	1.431816470566	1071
193	3303	1.436100470565	1071
193	3320	1.440384470564	1071
193	3351	1.444668470563	1071
193	3375	1.448952470562	1071
193	3409	1.453236470561	1071
193	3428	1.45752047056	1071
193	3441	1.461804470559	1071
193	3463	1.466088470558	1071
193	3482	1.470372470557	1071
193	3505	1.474656470556	1071
193	3521	1.478940470555	1071
194	39	0.060888	51
194	1879	1.070668705881	47
194	2061	1.142668705881	47
194	2081	1.147708705881	47
194	2276	1.214668705881	47
194	2300	1.219708705881	47
194	2344	1.229732235292	47
194	2362	1.234772235292	47
194	2545	1.286668705881	47
194	2569	1.291708705881	47
194	2623	1.301732235292	47
194	2649	1.306772235292	47
194	2703	1.316795764703	47
194	2750	1.326819294114	47
194	2776	1.331859294114	47
194	2824	1.341882823525	47
194	2949	1.37184047058	47
194	2975	1.37688047058	47
194	3027	1.386903999991	47
194	3054	1.391943999991	47
194	3108	1.401967529402	47
194	3162	1.411991058813	47
194	3194	1.417031058813	47
194	3249	1.427054588224	47
194	3282	1.432094588224	47
194	3334	1.442118117635	47
194	3365	1.447158117635	47
194	3400	1.452198117635	47
194	3420	1.457238117635	47
194	3451	1.462278117635	47
197	20	0	44
197	45	0.060888	40
197	1725	1	1064
197	1886	1.070668705881	1064
197	1894	1.07495270588	1064
197	2068	1.142668705881	1064
197	2076	1.14695270588	1064
197	2095	1.151236705879	1064
197	2106	1.155520705878	1064
197	2283	1.214668705881	1064
197	2291	1.21895270588	1064
197	2315	1.223236705879	1064
197	2331	1.227520705878	1064
197	2354	1.231804705877	1064
197	2379	1.236088705876	1064
197	2387	1.240372705875	1064
197	2406	1.244656705874	1064
197	2552	1.286668705881	1064
197	2558	1.29095270588	1064
197	2583	1.295236705879	1064
197	2604	1.299520705878	1064
197	2631	1.303804705877	1064
197	2663	1.308088705876	1064
197	2679	1.312372705875	1064
197	2702	1.316656705874	1064
197	2716	1.320940705873	1064
197	2740	1.325224705872	1064
197	2759	1.329508705871	1064
197	2790	1.33379270587	1064
197	2802	1.338076705869	1064
197	2832	1.342360705868	1064
197	2850	1.346644705867	1064
197	2861	1.350928705866	1064
197	2956	1.37184047058	1064
197	2963	1.376124470579	1064
197	2992	1.380408470578	1064
197	3010	1.384692470577	1064
197	3040	1.388976470576	1064
197	3064	1.393260470575	1064
197	3087	1.397544470574	1064
197	3106	1.401828470573	1064
197	3128	1.406112470572	1064
197	3148	1.410396470571	1064
197	3175	1.41468047057	1064
197	3206	1.418964470569	1064
197	3231	1.423248470568	1064
197	3257	1.427532470567	1064
197	3267	1.431816470566	1064
197	3303	1.436100470565	1064
197	3320	1.440384470564	1064
197	3351	1.444668470563	1064
197	3375	1.448952470562	1064
197	3409	1.453236470561	1064
197	3428	1.45752047056	1064
197	3441	1.461804470559	1064
197	3463	1.466088470558	1064
197	3482	1.470372470557	1064
197	3505	1.474656470556	1064
197	3521	1.478940470555	1064
198	39	0.060888	44
198	1879	1.070668705881	40
198	2061	1.142668705881	40
198	2081	1.147708705881	40
198	2276	1.214668705881	40
198	2300	1.219708705881	40
198	2344	1.229732235292	40
198	2362	1.234772235292	40
198	2545	1.286668705881	40
198	2569	1.291708705881	40
198	2623	1.301732235292	40
198	2649	1.306772235292	40
198	2703	1.316795764703	40
198	2750	1.326819294114	40
198	2776	1.331859294114	40
198	2824	1.341882823525	40
198	2949	1.37184047058	40
198	2975	1.37688047058	40
198	3027	1.386903999991	40
198	3054	1.391943999991	40
198	3108	1.401967529402	40
198	3162	1.411991058813	40
198	3194	1.417031058813	40
198	3249	1.427054588224	40
198	3282	1.432094588224	40
198	3334	1.442118117635	40
198	3365	1.447158117635	40
198	3400	1.452198117635	40
198	3420	1.457238117635	40
198	3451	1.462278117635	40
199	56	0.1	1024
199	63	0.108	1024
199	73	0.116	1024
199	84	0.124	1024
199	95	0.132	1024
199	110	0.14	1024
199	125	0.148	1024
199	140	0.156	1024
199	155	0.164	1024
199	170	0.172	1024
199	185	0.18	1024
199	200	0.188	1024
199	215	0.196	1024
199	230	0.204	1024
199	245	0.212	1024
199	260	0.22	1024
199	275	0.228	1024
199	290	0.236	1024
199	305	0.244	1024
199	320	0.252	1024
199	335	0.26	1024
199	350	0.268	1024
199	365	0.276	1024
199	380	0.284	1024
199	395	0.292	1024
199	410	0.3	1024
199	425	0.308	1024
199	440	0.316	1024
199	455	0.324	1024
199	470	0.332	1024
199	485	0.34	1024
199	500	0.348	1024
199	515	0.356	1024
199	530	0.364	1024
199	545	0.372	1024
199	560	0.38	1024
199	575	0.388	1024
199	590	0.396	1024
199	605	0.404	1024
199	620	0.412	1024
199	635	0.42	1024
199	650	0.428	1024
199	665	0.436	1024
199	680	0.444	1024
199	695	0.452	1024
199	710	0.46	1024
199	725	0.468	1024
199	740	0.476	1024
199	755	0.484	1024
199	770	0.492	1024
199	785	0.5	1024
199	800	0.508	1024
199	815	0.516	1024
199	830	0.524	1024
199	845	0.532	1024
199	860	0.54	1024
199	875	0.548	1024
199	890	0.556	1024
199	905	0.564	1024
199	920	0.572	1024
199	935	0.58	1024
199	950	0.588	1024
199	965	0.596	1024
199	980	0.604	1024
199	995	0.612	1024
199	1010	0.62	1024
199	1025	0.628	1024
199	1040	0.636	1024
199	1055	0.644	1024
199	1070	0.652	1024
199	1085	0.66	1024
199	1100	0.668	1024
199	1115	0.676	1024
199	1130	0.684	1024
199	1145	0.692	1024
199	1160	0.7	1024
199	1175	0.708	1024
199	1190	0.716	1024
199	1205	0.724	1024
199	1220	0.732	1024
199	1235	0.74	1024
199	1250	0.748	1024
199	1265	0.756	1024
199	1280	0.764	1024
199	1295	0.772	1024
199	1310	0.78	1024
199	1325	0.788	1024
199	1340	0.796	1024
199	1355	0.804	1024
199	1370	0.812	1024
199	1385	0.82	1024
199	1400	0.828	1024
199	1415	0.836	1024
199	1430	0.844	1024
199	1445	0.852	1024
199	1460	0.86	1024
199	1475	0.868	1024
199	1490	0.876	1024
199	1505	0.884	1024
199	1520	0.892	1024
199	1535	0.9	1024
199	1550	0.908	1024
199	1565	0.916	1024
199	1580	0.924	1024
199	1595	0.932	1024
199	1610	0.94	1024
199	1625	0.948	1024
199	1640	0.956	1024
199	1655	0.964	1024
199	1670	0.972	1024
199	1685	0.98	1024
199	1700	0.988	1024
199	1715	0.996	1024
199	1735	1.004	1024
199	1751	1.012	1024
199	1769	1.02	1024
199	1786	1.028	1024
199	1801	1.036	1024
199	1820	1.044	1024
199	1839	1.052	1024
199	1854	1.06	1024
199	1874	1.068	1024
199	1899	1.076	1024
199	1915	1.084	1024
199	1936	1.092	1024
199	1953	1.1	1024
199	1970	1.108	1024
199	1989	1.116	1024
199	2012	1.124	1024
199	2027	1.132	1024
199	2056	1.14	1024
199	2088	1.148	1024
199	2107	1.156	1024
199	2129	1.164	1024
199	2152	1.172	1024
199	2169	1.18	1024
199	2188	1.188	1024
199	2213	1.196	1024
199	2232	1.204	1024
199	2267	1.212	1024
199	2308	1.22	1024
199	2332	1.228	1024
199	2373	1.236	1024
199	2400	1.244	1024
199	2426	1.252	1024
199	2451	1.26	1024
199	2476	1.268	1024
199	2495	1.276	1024
199	2530	1.284	1024
199	2577	1.292	1024
199	2605	1.3	1024
199	2657	1.308	1024
199	2686	1.316	1024
199	2734	1.324	1024
199	2784	1.332	1024
199	2809	1.34	1024
199	2852	1.348	1024
199	2876	1.356	1024
199	2916	1.364	1024
199	2957	1.372	1024
199	2986	1.38	1024
199	3034	1.388	1024
199	3071	1.396	1024
199	3122	1.404	1024
199	3169	1.412	1024
199	3207	1.42	1024
199	3258	1.428	1024
199	3297	1.436	1024
199	3345	1.444	1024
199	3390	1.452	1024
199	3435	1.46	1024
199	3476	1.468	1024
199	3506	1.476	1024
204	58	0.1	1032
204	64	0.108	1032
204	74	0.116	1032
204	85	0.124	1032
204	96	0.132	1032
204	111	0.14	1032
204	126	0.148	1032
204	141	0.156	1032
204	156	0.164	1032
204	171	0.172	1032
204	186	0.18	1032
204	201	0.188	1032
204	216	0.196	1032
204	231	0.204	1032
204	246	0.212	1032
204	261	0.22	1032
204	276	0.228	1032
204	291	0.236	1032
204	306	0.244	1032
204	321	0.252	1032
204	336	0.26	1032
204	351	0.268	1032
204	366	0.276	1032
204	381	0.284	1032
204	396	0.292	1032
204	411	0.3	1032
204	426	0.308	1032
204	441	0.316	1032
204	456	0.324	1032
204	471	0.332	1032
204	486	0.34	1032
204	501	0.348	1032
204	516	0.356	1032
204	531	0.364	1032
204	546	0.372	1032
204	561	0.38	1032
204	576	0.388	1032
204	591	0.396	1032
204	606	0.404	1032
204	621	0.412	1032
204	636	0.42	1032
204	651	0.428	1032
204	666	0.436	1032
204	681	0.444	1032
204	696	0.452	1032
204	711	0.46	1032
204	726	0.468	1032
204	741	0.476	1032
204	756	0.484	1032
204	771	0.492	1032
204	786	0.5	1032
204	801	0.508	1032
204	816	0.516	1032
204	831	0.524	1032
204	846	0.532	1032
204	861	0.54	1032
204	876	0.548	1032
204	891	0.556	1032
204	906	0.564	1032
204	921	0.572	1032
204	936	0.58	1032
204	951	0.588	1032
204	966	0.596	1032
204	981	0.604	1032
204	996	0.612	1032
204	1011	0.62	1032
204	1026	0.628	1032
204	1041	0.636	1032
204	1056	0.644	1032
204	1071	0.652	1032
204	1086	0.66	1032
204	1101	0.668	1032
204	1116	0.676	1032
204	1131	0.684	1032
204	1146	0.692	1032
204	1161	0.7	1032
204	1176	0.708	1032
204	1191	0.716	1032
204	1206	0.724	1032
204	1221	0.732	1032
204	1236	0.74	1032
204	1251	0.748	1032
204	1266	0.756	1032
204	1281	0.764	1032
204	1296	0.772	1032
204	1311	0.78	1032