version 2
run Que60-0-20140512-12:12:42-8199
attr configname Que60
attr datetime 20140512-12:12:42
attr experiment Que60
attr inifile omnetpp.ini
attr iterationvars ""
attr iterationvars2 $repetition=0
attr measurement ""
attr network Experience1
attr processid 8199
attr repetition 0
attr replication #0
attr resultdir results
attr runnumber 0
attr seedset 0

vector 11  Experience1.client1.ppp[0].queue  queueLength:vector  ETV
attr interpolationmode  sample-hold
attr title  "queue length, vector"
vector 12  Experience1.client1.ppp[0].ppp  txState:vector  ETV
attr interpolationmode  sample-hold
attr title  "tx state, vector"
vector 37  Experience1.client2.ppp[0].queue  queueLength:vector  ETV
attr interpolationmode  sample-hold
attr title  "queue length, vector"
vector 38  Experience1.client2.ppp[0].ppp  txState:vector  ETV
attr interpolationmode  sample-hold
attr title  "tx state, vector"
vector 62  Experience1.server.ppp[0].queue  queueLength:vector  ETV
attr interpolationmode  sample-hold
attr title  "queue length, vector"
vector 63  Experience1.server.ppp[0].ppp  txState:vector  ETV
attr interpolationmode  sample-hold
attr title  "tx state, vector"
vector 78  Experience1.router.ppp[0].queue  queueLength:vector  ETV
attr interpolationmode  sample-hold
attr title  "queue length, vector"
vector 79  Experience1.router.ppp[0].ppp  txState:vector  ETV
attr interpolationmode  sample-hold
attr title  "tx state, vector"
vector 89  Experience1.router.ppp[1].queue  queueLength:vector  ETV
attr interpolationmode  sample-hold
attr title  "queue length, vector"
vector 90  Experience1.router.ppp[1].ppp  txState:vector  ETV
attr interpolationmode  sample-hold
attr title  "tx state, vector"
vector 100  Experience1.router.ppp[2].queue  queueLength:vector  ETV
attr interpolationmode  sample-hold
attr title  "queue length, vector"
vector 101  Experience1.router.ppp[2].ppp  txState:vector  ETV
attr interpolationmode  sample-hold
attr title  "tx state, vector"
vector 147  Experience1.client1.tcp  tcpRcvQueueBytes  ETV
vector 134  Experience1.client1.tcp  "advertised window"  ETV
vector 133  Experience1.client1.tcp  "receive window"  ETV
vector 136  Experience1.client1.tcp  "sent ack"  ETV
vector 8  Experience1.client1.ppp[0].queue  rcvdPk:vector(packetBytes)  ETV
attr interpolationmode  none
attr title  "received packets, vector(packetBytes)"
vector 10  Experience1.client1.ppp[0].queue  queueingTime:vector  ETV
attr interpolationmode  none
attr title  "queueing time, vector"
vector 17  Experience1.client1.ppp[0].ppp  rcvdPkFromHL:vector(packetBytes)  ETV
attr interpolationmode  none
attr source  packetReceivedFromUpper
attr title  "packets received from higher layer, vector(packetBytes)"
vector 13  Experience1.client1.ppp[0].ppp  txPk:vector(packetBytes)  ETV
attr interpolationmode  none
attr source  packetSentToLower
attr title  "packets transmitted, vector(packetBytes)"
vector 81  Experience1.router.ppp[0].ppp  rxPkOk:vector(packetBytes)  ETV
attr interpolationmode  none
attr source  rxPkOk
attr title  "packets received OK, vector(packetBytes)"
vector 85  Experience1.router.ppp[0].ppp  passedUpPk:vector(packetBytes)  ETV
attr interpolationmode  none
attr source  packetSentToUpper
attr title  "packets passed to higher layer, vector(packetBytes)"
vector 97  Experience1.router.ppp[2].queue  rcvdPk:vector(packetBytes)  ETV
attr interpolationmode  none
attr title  "received packets, vector(packetBytes)"
vector 99  Experience1.router.ppp[2].queue  queueingTime:vector  ETV
attr interpolationmode  none
attr title  "queueing time, vector"
vector 106  Experience1.router.ppp[2].ppp  rcvdPkFromHL:vector(packetBytes)  ETV
attr interpolationmode  none
attr source  packetReceivedFromUpper
attr title  "packets received from higher layer, vector(packetBytes)"
vector 102  Experience1.router.ppp[2].ppp  txPk:vector(packetBytes)  ETV
attr interpolationmode  none
attr source  packetSentToLower
attr title  "packets transmitted, vector(packetBytes)"
vector 65  Experience1.server.ppp[0].ppp  rxPkOk:vector(packetBytes)  ETV
attr interpolationmode  none
attr source  rxPkOk
attr title  "packets received OK, vector(packetBytes)"
vector 69  Experience1.server.ppp[0].ppp  passedUpPk:vector(packetBytes)  ETV
attr interpolationmode  none
attr source  packetSentToUpper
attr title  "packets passed to higher layer, vector(packetBytes)"
vector 113  Experience1.server.tcp  "rcvd seq"  ETV
vector 114  Experience1.server.tcp  "rcvd ack"  ETV
vector 110  Experience1.server.tcp  "advertised window"  ETV
vector 108  Experience1.server.tcp  "send window"  ETV
vector 123  Experience1.server.tcp  tcpRcvQueueBytes  ETV
vector 109  Experience1.server.tcp  "receive window"  ETV
vector 112  Experience1.server.tcp  "sent ack"  ETV
vector 59  Experience1.server.ppp[0].queue  rcvdPk:vector(packetBytes)  ETV
attr interpolationmode  none
attr title  "received packets, vector(packetBytes)"
vector 61  Experience1.server.ppp[0].queue  queueingTime:vector  ETV
attr interpolationmode  none
attr title  "queueing time, vector"
vector 68  Experience1.server.ppp[0].ppp  rcvdPkFromHL:vector(packetBytes)  ETV
attr interpolationmode  none
attr source  packetReceivedFromUpper
attr title  "packets received from higher layer, vector(packetBytes)"
vector 64  Experience1.server.ppp[0].ppp  txPk:vector(packetBytes)  ETV
attr interpolationmode  none
attr source  packetSentToLower
attr title  "packets transmitted, vector(packetBytes)"
vector 103  Experience1.router.ppp[2].ppp  rxPkOk:vector(packetBytes)  ETV
attr interpolationmode  none
attr source  rxPkOk
attr title  "packets received OK, vector(packetBytes)"
vector 107  Experience1.router.ppp[2].ppp  passedUpPk:vector(packetBytes)  ETV
attr interpolationmode  none
attr source  packetSentToUpper
attr title  "packets passed to higher layer, vector(packetBytes)"
vector 75  Experience1.router.ppp[0].queue  rcvdPk:vector(packetBytes)  ETV
attr interpolationmode  none
attr title  "received packets, vector(packetBytes)"
vector 77  Experience1.router.ppp[0].queue  queueingTime:vector  ETV
attr interpolationmode  none
attr title  "queueing time, vector"
vector 84  Experience1.router.ppp[0].ppp  rcvdPkFromHL:vector(packetBytes)  ETV
attr interpolationmode  none
attr source  packetReceivedFromUpper
attr title  "packets received from higher layer, vector(packetBytes)"
vector 80  Experience1.router.ppp[0].ppp  txPk:vector(packetBytes)  ETV
attr interpolationmode  none
attr source  packetSentToLower
attr title  "packets transmitted, vector(packetBytes)"
vector 14  Experience1.client1.ppp[0].ppp  rxPkOk:vector(packetBytes)  ETV
attr interpolationmode  none
attr source  rxPkOk
attr title  "packets received OK, vector(packetBytes)"
vector 18  Experience1.client1.ppp[0].ppp  passedUpPk:vector(packetBytes)  ETV
attr interpolationmode  none
attr source  packetSentToUpper
attr title  "packets passed to higher layer, vector(packetBytes)"
vector 137  Experience1.client1.tcp  "rcvd seq"  ETV
vector 138  Experience1.client1.tcp  "rcvd ack"  ETV
vector 132  Experience1.client1.tcp  "send window"  ETV
vector 115  Experience1.server.tcp  "unacked bytes"  ETV
vector 19  Experience1.client2.udpApp[0]  sentPk:vector(packetBytes)  ETV
attr interpolationmode  none
attr source  sentPk
attr title  "packets sent, vector(packetBytes)"
vector 24  Experience1.client2.udp  sentPk:vector(packetBytes)  ETV
attr interpolationmode  none
attr source  sentPk
attr title  "packets sent, vector(packetBytes)"
vector 34  Experience1.client2.ppp[0].queue  rcvdPk:vector(packetBytes)  ETV
attr interpolationmode  none
attr title  "received packets, vector(packetBytes)"
vector 36  Experience1.client2.ppp[0].queue  queueingTime:vector  ETV
attr interpolationmode  none
attr title  "queueing time, vector"
vector 43  Experience1.client2.ppp[0].ppp  rcvdPkFromHL:vector(packetBytes)  ETV
attr interpolationmode  none
attr source  packetReceivedFromUpper
attr title  "packets received from higher layer, vector(packetBytes)"
vector 39  Experience1.client2.ppp[0].ppp  txPk:vector(packetBytes)  ETV
attr interpolationmode  none
attr source  packetSentToLower
attr title  "packets transmitted, vector(packetBytes)"
vector 92  Experience1.router.ppp[1].ppp  rxPkOk:vector(packetBytes)  ETV
attr interpolationmode  none
attr source  rxPkOk
attr title  "packets received OK, vector(packetBytes)"
vector 96  Experience1.router.ppp[1].ppp  passedUpPk:vector(packetBytes)  ETV
attr interpolationmode  none
attr source  packetSentToUpper
attr title  "packets passed to higher layer, vector(packetBytes)"
vector 50  Experience1.server.udp  rcvdPk:vector(packetBytes)  ETV
attr interpolationmode  none
attr source  rcvdPk
attr title  "packets received, vector(packetBytes)"
vector 51  Experience1.server.udp  passedUpPk:vector(count)  ETV
attr interpolationmode  none
attr title  "packets passed up, vector(count)"
vector 47  Experience1.server.udpApp[0]  rcvdPk:vector(packetBytes)  ETV
attr interpolationmode  none
attr source  rcvdPk
attr title  "packets received, vector(packetBytes)"
vector 48  Experience1.server.udpApp[0]  endToEndDelay:vector  ETV
attr interpolationmode  none
attr source  messageAge(rcvdPk)
attr title  "end-to-end delay, vector"
attr unit  s
vector 1  Experience1.client1.tcpApp[0]  sentPk:vector(packetBytes)  ETV
attr interpolationmode  none
attr source  sentPk
attr title  "packets sent, vector(packetBytes)"
vector 135  Experience1.client1.tcp  "sent seq"  ETV
vector 139  Experience1.client1.tcp  "unacked bytes"  ETV
vector 116  Experience1.server.tcp  "rcvd dupAcks"  ETV
vector 45  Experience1.server.tcpApp[0]  rcvdPk:vector(packetBytes)  ETV
attr interpolationmode  none
attr source  rcvdPk
attr title  "packets received, vector(packetBytes)"
vector 46  Experience1.server.tcpApp[0]  endToEndDelay:vector  ETV
attr interpolationmode  none
attr source  messageAge(rcvdPk)
attr title  "end-to-end delay, vector"
attr unit  s
vector 151  Experience1.client1.tcp  "measured RTT"  ETV
vector 152  Experience1.client1.tcp  "smoothed RTT"  ETV
vector 153  Experience1.client1.tcp  RTTVAR  ETV
vector 154  Experience1.client1.tcp  RTO  ETV
vector 149  Experience1.client1.tcp  cwnd  ETV
vector 140  Experience1.client1.tcp  "rcvd dupAcks"  ETV
vector 98  Experience1.router.ppp[2].queue  dropPk:vector(packetBytes)  ETV
attr interpolationmode  none
attr source  dropPkByQueue
attr title  "dropped packets, vector(packetBytes)"
1	1721	1	104857600
8	19	0	44
8	44	0.060888	40
8	1724	1	1064
8	1884	1.070668705881	1064
8	1885	1.070668705881	1064
8	2066	1.142668705881	1064
8	2067	1.142668705881	1064
8	2086	1.147708705881	1064
8	2087	1.147708705881	1064
8	2281	1.214668705881	1064
8	2282	1.214668705881	1064
8	2305	1.219708705881	1064
8	2306	1.219708705881	1064
8	2349	1.229732235292	1064
8	2350	1.229732235292	1064
8	2367	1.234772235292	1064
8	2368	1.234772235292	1064
8	2550	1.286668705881	1064
8	2551	1.286668705881	1064
8	2574	1.291708705881	1064
8	2575	1.291708705881	1064
8	2628	1.301732235292	1064
8	2629	1.301732235292	1064
8	2654	1.306772235292	1064
8	2655	1.306772235292	1064
8	2708	1.316795764703	1064
8	2709	1.316795764703	1064
8	2755	1.326819294114	1064
8	2756	1.326819294114	1064
8	2781	1.331859294114	1064
8	2782	1.331859294114	1064
8	2829	1.341882823525	1064
8	2830	1.341882823525	1064
8	2954	1.37184047058	1064
8	2955	1.37184047058	1064
8	2980	1.37688047058	1064
8	2981	1.37688047058	1064
8	3032	1.386903999991	1064
8	3033	1.386903999991	1064
8	3059	1.391943999991	1064
8	3060	1.391943999991	1064
8	3113	1.401967529402	1064
8	3114	1.401967529402	1064
8	3167	1.411991058813	1064
8	3168	1.411991058813	1064
8	3199	1.417031058813	1064
8	3200	1.417031058813	1064
8	3250	1.427054588224	1064
8	3251	1.427054588224	1064
8	3283	1.432094588224	1064
8	3284	1.432094588224	1064
8	3335	1.442118117635	1064
8	3336	1.442118117635	1064
8	3369	1.447158117635	1064
8	3370	1.447158117635	1064
8	3418	1.457181647046	1064
8	3419	1.457181647046	1064
8	3450	1.462221647046	1064
8	3451	1.462221647046	1064
8	3502	1.472245176457	1064
8	3503	1.472245176457	1064
8	3532	1.477285176457	1064
8	3533	1.477285176457	1064
8	3575	1.487308705868	1064
8	3576	1.487308705868	1064
8	3655	1.50231576469	1064
8	3656	1.50231576469	1064
8	3707	1.512339294101	1064
8	3708	1.512339294101	1064
8	3760	1.522362823512	1064
8	3761	1.522362823512	1064
8	3791	1.527402823512	1064
8	3792	1.527402823512	1064
8	3843	1.537426352923	1064
8	3844	1.537426352923	1064
8	3877	1.542466352923	1064
8	3878	1.542466352923	1064
8	3928	1.552489882334	1064
8	3929	1.552489882334	1064
8	3965	1.557529882334	1064
8	3966	1.557529882334	1064
8	4013	1.567553411745	1064
8	4014	1.567553411745	1064
8	4048	1.572593411745	1064
8	4049	1.572593411745	1064
8	4098	1.582616941156	1064
8	4099	1.582616941156	1064
8	4127	1.587656941156	1064
8	4128	1.587656941156	1064
8	4184	1.597680470567	1064
8	4185	1.597680470567	1064
8	4210	1.602720470567	1064
8	4211	1.602720470567	1064
8	4268	1.612743999978	1064
8	4269	1.612743999978	1064
8	4319	1.622767529389	1064
8	4320	1.622767529389	1064
8	4349	1.627807529389	1064
8	4350	1.627807529389	1064
8	4404	1.6378310588	1064
8	4405	1.6378310588	1064
8	4434	1.6428710588	1064
8	4435	1.6428710588	1064
8	4490	1.652894588211	1064
8	4491	1.652894588211	1064
8	4517	1.657934588211	1064
8	4518	1.657934588211	1064
8	4570	1.667958117622	1064
8	4571	1.667958117622	1064
8	4602	1.672998117622	1064
8	4603	1.672998117622	1064
8	4656	1.683021647033	1064
8	4657	1.683021647033	1064
8	4687	1.688061647033	1064
8	4688	1.688061647033	1064
8	4738	1.698085176444	1064
8	4739	1.698085176444	1064
8	4768	1.703125176444	1064
8	4769	1.703125176444	1064
8	4824	1.713148705855	1064
8	4825	1.713148705855	1064
8	4854	1.718188705855	1064
8	4855	1.718188705855	1064
8	4907	1.728212235266	1064
8	4908	1.728212235266	1064
8	4959	1.738235764677	1064
8	4960	1.738235764677	1064
8	4992	1.743275764677	1064
8	5041	1.753299294088	1064
8	5073	1.758339294088	1064
8	5123	1.768362823499	1064
8	5155	1.773402823499	1064
8	5203	1.78342635291	1064
8	5236	1.78846635291	1064
8	5285	1.798489882321	1064
8	5309	1.803529882321	1064
8	5365	1.813553411732	1064
8	5389	1.818593411732	1064
8	5444	1.828616941143	1064
8	5485	1.838640470554	1064
8	5513	1.843680470554	1064
8	5559	1.853703999965	1064
8	5587	1.858743999965	1064
8	5633	1.868767529376	1064
8	5658	1.873807529376	1064
8	5702	1.883831058787	1064
8	5732	1.888871058787	1064
8	5776	1.898894588198	1064
8	5805	1.903934588198	1064
8	5847	1.913958117609	1064
8	5875	1.918998117609	1064
8	5921	1.92902164702	1064
8	5949	1.93406164702	1064
8	5993	1.944085176431	1064
8	6035	1.954108705842	1064
8	6067	1.959148705842	1064
8	6109	1.969172235253	1064
8	6141	1.974212235253	1064
8	6182	1.984235764664	1064
8	6215	1.989275764664	1064
8	6256	1.999299294075	1064
10	19	0	0
10	44	0.060888	0
10	1724	1	0
10	1884	1.070668705881	0
10	1893	1.07495270588	0.004283999999
10	2066	1.142668705881	0
10	2075	1.14695270588	0.004283999999
10	2094	1.151236705879	0.003527999998
10	2105	1.155520705878	0.007811999997
10	2281	1.214668705881	0
10	2290	1.21895270588	0.004283999999
10	2314	1.223236705879	0.003527999998
10	2330	1.227520705878	0.007811999997
10	2353	1.231804705877	0.002072470585
10	2378	1.236088705876	0.006356470584
10	2386	1.240372705875	0.005600470583
10	2405	1.244656705874	0.009884470582
10	2550	1.286668705881	0
10	2557	1.29095270588	0.004283999999
10	2582	1.295236705879	0.003527999998
10	2603	1.299520705878	0.007811999997
10	2630	1.303804705877	0.002072470585
10	2662	1.308088705876	0.006356470584
10	2678	1.312372705875	0.005600470583
10	2701	1.316656705874	0.009884470582
10	2715	1.320940705873	0.00414494117
10	2739	1.325224705872	0.008428941169
10	2758	1.329508705871	0.002689411757
10	2789	1.33379270587	0.006973411756
10	2801	1.338076705869	0.006217411755
10	2831	1.342360705868	0.010501411754
10	2849	1.346644705867	0.004761882342
10	2860	1.350928705866	0.009045882341
10	2954	1.37184047058	0
10	2962	1.376124470579	0.004283999999
10	2991	1.380408470578	0.003527999998
10	3009	1.384692470577	0.007811999997
10	3039	1.388976470576	0.002072470585
10	3063	1.393260470575	0.006356470584
10	3086	1.397544470574	0.005600470583
10	3105	1.401828470573	0.009884470582
10	3127	1.406112470572	0.00414494117
10	3147	1.410396470571	0.008428941169
10	3174	1.41468047057	0.002689411757
10	3205	1.418964470569	0.006973411756
10	3226	1.423248470568	0.006217411755
10	3252	1.427532470567	0.010501411754
10	3269	1.431816470566	0.004761882342
10	3298	1.436100470565	0.009045882341
10	3315	1.440384470564	0.00828988234
10	3345	1.444668470563	0.012573882339
10	3373	1.448952470562	0.006834352927
10	3397	1.453236470561	0.011118352926
10	3420	1.45752047056	0.010362352925
10	3433	1.461804470559	0.014646352924
10	3457	1.466088470558	0.008906823512
10	3481	1.470372470557	0.013190823511
10	3507	1.474656470556	0.01243482351
10	3535	1.478940470555	0.016718823509
10	3554	1.483224470554	0.010979294097
10	3577	1.487508470553	0.015263294096
10	3586	1.491792470552	0.014507294095
10	3611	1.496076470551	0.018791294094
10	3635	1.50036047055	0.013051764682
10	3659	1.504644470549	0.017335764681
10	3682	1.508928470548	0.006612705858
10	3710	1.513212470547	0.010896705857
10	3734	1.517496470546	0.005157176445
10	3740	1.521780470545	0.009441176444
10	3770	1.526064470544	0.003701647032
10	3801	1.530348470543	0.007985647031
10	3822	1.534632470542	0.00722964703
10	3848	1.538916470541	0.011513647029
10	3880	1.54320047054	0.005774117617
10	3899	1.547484470539	0.010058117616
10	3910	1.551768470538	0.009302117615
10	3941	1.556052470537	0.013586117614
10	3969	1.560336470536	0.007846588202
10	3993	1.564620470535	0.012130588201
10	4016	1.568904470534	0.0113745882
10	4051	1.573188470533	0.015658588199
10	4067	1.577472470532	0.009919058787
10	4081	1.581756470531	0.014203058786
10	4104	1.58604047053	0.013447058785
10	4135	1.590324470529	0.017731058784
10	4159	1.594608470528	0.011991529372
10	4186	1.598892470527	0.016275529371
10	4213	1.603176470526	0.01551952937
10	4230	1.607460470525	0.019803529369
10	4242	1.611744470524	0.014063999957
10	4274	1.616028470523	0.018347999956
10	4299	1.620312470522	0.017591999955
10	4322	1.624596470521	0.021875999954
10	4357	1.62888047052	0.016136470542
10	4374	1.633164470519	0.020420470541
10	4387	1.637448470518	0.014680941129
10	4410	1.641732470517	0.018964941128
10	4445	1.646016470516	0.018208941127
10	4465	1.650300470515	0.022492941126
10	4492	1.654584470514	0.016753411714
10	4523	1.658868470513	0.021037411713
10	4544	1.663152470512	0.020281411712
10	4553	1.667436470511	0.024565411711
10	4580	1.67172047051	0.018825882299
10	4616	1.676004470509	0.023109882298
10	4633	1.680288470508	0.022353882297
10	4663	1.684572470507	0.026637882296
10	4691	1.688856470506	0.020898352884
10	4715	1.693140470505	0.025182352883
10	4721	1.697424470504	0.024426352882
10	4751	1.701708470503	0.028710352881
10	4775	1.705992470502	0.022970823469
10	4803	1.710276470501	0.027254823468
10	4829	1.7145604705	0.026498823467
10	4857	1.718844470499	0.030782823466
10	4876	1.723128470498	0.025043294054
10	4886	1.727412470497	0.029327294053
10	4917	1.731696470496	0.028571294052
10	4938	1.735980470495	0.032855294051
10	4969	1.740264470494	0.027115764639
10	4995	1.744548470493	0.031399764638
10	5019	1.748832470492	0.030643764637
10	5032	1.753116470491	0.034927764636
10	5053	1.75740047049	0.029188235224
10	5079	1.761684470489	0.033472235223
10	5103	1.765968470488	0.027732705811
10	5127	1.770252470487	0.03201670581
10	5157	1.774536470486	0.031260705809
10	5177	1.778820470485	0.025521176397
10	5187	1.783104470484	0.024765176396
10	5211	1.787388470483	0.019025646984
10	5241	1.791672470482	0.018269646983
10	5261	1.795956470481	0.012530117571
10	5287	1.80024047048	0.01177411757
10	5316	1.804524470479	0.006034588158
10	5337	1.808808470478	0.005278588157
10	5365	1.813553411732	0
10	5389	1.818593411732	0
10	5444	1.828616941143	0
10	5485	1.838640470554	0
10	5513	1.843680470554	0
10	5559	1.853703999965	0
10	5587	1.858743999965	0
10	5633	1.868767529376	0
10	5658	1.873807529376	0
10	5702	1.883831058787	0
10	5732	1.888871058787	0
10	5776	1.898894588198	0
10	5805	1.903934588198	0
10	5847	1.913958117609	0
10	5875	1.918998117609	0
10	5921	1.92902164702	0
10	5949	1.93406164702	0
10	5993	1.944085176431	0
10	6035	1.954108705842	0
10	6067	1.959148705842	0
10	6109	1.969172235253	0
10	6141	1.974212235253	0
10	6182	1.984235764664	0
10	6215	1.989275764664	0
10	6256	1.999299294075	0
11	0	0	0
11	1885	1.070668705881	1
11	1893	1.07495270588	0
11	2067	1.142668705881	1
11	2075	1.14695270588	0
11	2086	1.147708705881	1
11	2087	1.147708705881	2
11	2094	1.151236705879	1
11	2105	1.155520705878	0
11	2282	1.214668705881	1
11	2290	1.21895270588	0
11	2305	1.219708705881	1
11	2306	1.219708705881	2
11	2314	1.223236705879	1
11	2330	1.227520705878	0
11	2349	1.229732235292	1
11	2350	1.229732235292	2
11	2353	1.231804705877	1
11	2367	1.234772235292	2
11	2368	1.234772235292	3
11	2378	1.236088705876	2
11	2386	1.240372705875	1
11	2405	1.244656705874	0
11	2551	1.286668705881	1
11	2557	1.29095270588	0
11	2574	1.291708705881	1
11	2575	1.291708705881	2
11	2582	1.295236705879	1
11	2603	1.299520705878	0
11	2628	1.301732235292	1
11	2629	1.301732235292	2
11	2630	1.303804705877	1
11	2654	1.306772235292	2
11	2655	1.306772235292	3
11	2662	1.308088705876	2
11	2678	1.312372705875	1
11	2701	1.316656705874	0
11	2708	1.316795764703	1
11	2709	1.316795764703	2
11	2715	1.320940705873	1
11	2739	1.325224705872	0
11	2755	1.326819294114	1
11	2756	1.326819294114	2
11	2758	1.329508705871	1
11	2781	1.331859294114	2
11	2782	1.331859294114	3
11	2789	1.33379270587	2
11	2801	1.338076705869	1
11	2829	1.341882823525	2
11	2830	1.341882823525	3
11	2831	1.342360705868	2
11	2849	1.346644705867	1
11	2860	1.350928705866	0
11	2955	1.37184047058	1
11	2962	1.376124470579	0
11	2980	1.37688047058	1
11	2981	1.37688047058	2
11	2991	1.380408470578	1
11	3009	1.384692470577	0
11	3032	1.386903999991	1
11	3033	1.386903999991	2
11	3039	1.388976470576	1
11	3059	1.391943999991	2
11	3060	1.391943999991	3
11	3063	1.393260470575	2
11	3086	1.397544470574	1
11	3105	1.401828470573	0
11	3113	1.401967529402	1
11	3114	1.401967529402	2
11	3127	1.406112470572	1
11	3147	1.410396470571	0
11	3167	1.411991058813	1
11	3168	1.411991058813	2
11	3174	1.41468047057	1
11	3199	1.417031058813	2
11	3200	1.417031058813	3
11	3205	1.418964470569	2
11	3226	1.423248470568	1
11	3250	1.427054588224	2
11	3251	1.427054588224	3
11	3252	1.427532470567	2
11	3269	1.431816470566	1
11	3283	1.432094588224	2
11	3284	1.432094588224	3
11	3298	1.436100470565	2
11	3315	1.440384470564	1
11	3335	1.442118117635	2
11	3336	1.442118117635	3
11	3345	1.444668470563	2
11	3369	1.447158117635	3
11	3370	1.447158117635	4
11	3373	1.448952470562	3
11	3397	1.453236470561	2
11	3418	1.457181647046	3
11	3419	1.457181647046	4
11	3420	1.45752047056	3
11	3433	1.461804470559	2
11	3450	1.462221647046	3
11	3451	1.462221647046	4
11	3457	1.466088470558	3
11	3481	1.470372470557	2
11	3502	1.472245176457	3
11	3503	1.472245176457	4
11	3507	1.474656470556	3
11	3532	1.477285176457	4
11	3533	1.477285176457	5
11	3535	1.478940470555	4
11	3554	1.483224470554	3
11	3575	1.487308705868	4
11	3576	1.487308705868	5
11	3577	1.487508470553	4
11	3586	1.491792470552	3
11	3611	1.496076470551	2
11	3635	1.50036047055	1
11	3655	1.50231576469	2
11	3656	1.50231576469	3
11	3659	1.504644470549	2
11	3682	1.508928470548	1
11	3707	1.512339294101	2
11	3708	1.512339294101	3
11	3710	1.513212470547	2
11	3734	1.517496470546	1
11	3740	1.521780470545	0
11	3760	1.522362823512	1
11	3761	1.522362823512	2
11	3770	1.526064470544	1
11	3791	1.527402823512	2
11	3792	1.527402823512	3
11	3801	1.530348470543	2
11	3822	1.534632470542	1
11	3843	1.537426352923	2
11	3844	1.537426352923	3
11	3848	1.538916470541	2
11	3877	1.542466352923	3
11	3878	1.542466352923	4
11	3880	1.54320047054	3
11	3899	1.547484470539	2
11	3910	1.551768470538	1
11	3928	1.552489882334	2
11	3929	1.552489882334	3
11	3941	1.556052470537	2
11	3965	1.557529882334	3
11	3966	1.557529882334	4
11	3969	1.560336470536	3
11	3993	1.564620470535	2
11	4013	1.567553411745	3
11	4014	1.567553411745	4
11	4016	1.568904470534	3
11	4048	1.572593411745	4
11	4049	1.572593411745	5
11	4051	1.573188470533	4
11	4067	1.577472470532	3
11	4081	1.581756470531	2
11	4098	1.582616941156	3
11	4099	1.582616941156	4
11	4104	1.58604047053	3
11	4127	1.587656941156	4
11	4128	1.587656941156	5
11	4135	1.590324470529	4
11	4159	1.594608470528	3
11	4184	1.597680470567	4
11	4185	1.597680470567	5
11	4186	1.598892470527	4
11	4210	1.602720470567	5
11	4211	1.602720470567	6
11	4213	1.603176470526	5
11	4230	1.607460470525	4
11	4242	1.611744470524	3
11	4268	1.612743999978	4
11	4269	1.612743999978	5
11	4274	1.616028470523	4
11	4299	1.620312470522	3
11	4319	1.622767529389	4
11	4320	1.622767529389	5
11	4322	1.624596470521	4
11	4349	1.627807529389	5
11	4350	1.627807529389	6
11	4357	1.62888047052	5
11	4374	1.633164470519	4
11	4387	1.637448470518	3
11	4404	1.6378310588	4
11	4405	1.6378310588	5
11	4410	1.641732470517	4
11	4434	1.6428710588	5
11	4435	1.6428710588	6
11	4445	1.646016470516	5
11	4465	1.650300470515	4
11	4490	1.652894588211	5
11	4491	1.652894588211	6
11	4492	1.654584470514	5
11	4517	1.657934588211	6
11	4518	1.657934588211	7
11	4523	1.658868470513	6
11	4544	1.663152470512	5
11	4553	1.667436470511	4
11	4570	1.667958117622	5
11	4571	1.667958117622	6
11	4580	1.67172047051	5
11	4602	1.672998117622	6
11	4603	1.672998117622	7
11	4616	1.676004470509	6
11	4633	1.680288470508	5
11	4656	1.683021647033	6
11	4657	1.683021647033	7
11	4663	1.684572470507	6
11	4687	1.688061647033	7
11	4688	1.688061647033	8
11	4691	1.688856470506	7
11	4715	1.693140470505	6
11	4721	1.697424470504	5
11	4738	1.698085176444	6
11	4739	1.698085176444	7
11	4751	1.701708470503	6
11	4768	1.703125176444	7
11	4769	1.703125176444	8
11	4775	1.705992470502	7
11	4803	1.710276470501	6
11	4824	1.713148705855	7
11	4825	1.713148705855	8
11	4829	1.7145604705	7
11	4854	1.718188705855	8
11	4855	1.718188705855	9
11	4857	1.718844470499	8
11	4876	1.723128470498	7
11	4886	1.727412470497	6
11	4907	1.728212235266	7
11	4908	1.728212235266	8
11	4917	1.731696470496	7
11	4938	1.735980470495	6
11	4959	1.738235764677	7
11	4960	1.738235764677	8
11	4969	1.740264470494	7
11	4992	1.743275764677	8
11	4995	1.744548470493	7
11	5019	1.748832470492	6
11	5032	1.753116470491	5
11	5041	1.753299294088	6
11	5053	1.75740047049	5
11	5073	1.758339294088	6
11	5079	1.761684470489	5
11	5103	1.765968470488	4
11	5123	1.768362823499	5
11	5127	1.770252470487	4
11	5155	1.773402823499	5
11	5157	1.774536470486	4
11	5177	1.778820470485	3
11	5187	1.783104470484	2
11	5203	1.78342635291	3
11	5211	1.787388470483	2
11	5236	1.78846635291	3
11	5241	1.791672470482	2
11	5261	1.795956470481	1
11	5285	1.798489882321	2
11	5287	1.80024047048	1
11	5309	1.803529882321	2
11	5316	1.804524470479	1
11	5337	1.808808470478	0
12	0	0	0
12	20	0	1
12	21	0.000204	0
12	45	0.060888	1
12	46	0.061076	0
12	1725	1	1
12	1740	1.004283999999	0
12	1886	1.070668705881	1
12	1893	1.07495270588	0
12	1894	1.07495270588	1
12	1905	1.079236705879	0
12	2068	1.142668705881	1
12	2075	1.14695270588	0
12	2076	1.14695270588	1
12	2094	1.151236705879	0
12	2095	1.151236705879	1
12	2105	1.155520705878	0
12	2106	1.155520705878	1
12	2117	1.159804705877	0
12	2283	1.214668705881	1
12	2290	1.21895270588	0
12	2291	1.21895270588	1
12	2314	1.223236705879	0
12	2315	1.223236705879	1
12	2330	1.227520705878	0
12	2331	1.227520705878	1
12	2353	1.231804705877	0
12	2354	1.231804705877	1
12	2378	1.236088705876	0
12	2379	1.236088705876	1
12	2386	1.240372705875	0
12	2387	1.240372705875	1
12	2405	1.244656705874	0
12	2406	1.244656705874	1
12	2413	1.248940705873	0
12	2552	1.286668705881	1
12	2557	1.29095270588	0
12	2558	1.29095270588	1
12	2582	1.295236705879	0
12	2583	1.295236705879	1
12	2603	1.299520705878	0
12	2604	1.299520705878	1
12	2630	1.303804705877	0
12	2631	1.303804705877	1
12	2662	1.308088705876	0
12	2663	1.308088705876	1
12	2678	1.312372705875	0
12	2679	1.312372705875	1
12	2701	1.316656705874	0
12	2702	1.316656705874	1
12	2715	1.320940705873	0
12	2716	1.320940705873	1
12	2739	1.325224705872	0
12	2740	1.325224705872	1
12	2758	1.329508705871	0
12	2759	1.329508705871	1
12	2789	1.33379270587	0
12	2790	1.33379270587	1
12	2801	1.338076705869	0
12	2802	1.338076705869	1
12	2831	1.342360705868	0
12	2832	1.342360705868	1
12	2849	1.346644705867	0
12	2850	1.346644705867	1
12	2860	1.350928705866	0
12	2861	1.350928705866	1
12	2875	1.355212705865	0
12	2956	1.37184047058	1
12	2962	1.376124470579	0
12	2963	1.376124470579	1
12	2991	1.380408470578	0
12	2992	1.380408470578	1
12	3009	1.384692470577	0
12	3010	1.384692470577	1
12	3039	1.388976470576	0
12	3040	1.388976470576	1
12	3063	1.393260470575	0
12	3064	1.393260470575	1
12	3086	1.397544470574	0
12	3087	1.397544470574	1
12	3105	1.401828470573	0
12	3106	1.401828470573	1
12	3127	1.406112470572	0
12	3128	1.406112470572	1
12	3147	1.410396470571	0
12	3148	1.410396470571	1
12	3174	1.41468047057	0
12	3175	1.41468047057	1
12	3205	1.418964470569	0
12	3206	1.418964470569	1
12	3226	1.423248470568	0
12	3227	1.423248470568	1
12	3252	1.427532470567	0
12	3253	1.427532470567	1
12	3269	1.431816470566	0
12	3270	1.431816470566	1
12	3298	1.436100470565	0
12	3299	1.436100470565	1
12	3315	1.440384470564	0
12	3316	1.440384470564	1
12	3345	1.444668470563	0
12	3346	1.444668470563	1
12	3373	1.448952470562	0
12	3374	1.448952470562	1
12	3397	1.453236470561	0
12	3398	1.453236470561	1
12	3420	1.45752047056	0
12	3421	1.45752047056	1
12	3433	1.461804470559	0
12	3434	1.461804470559	1
12	3457	1.466088470558	0
12	3458	1.466088470558	1
12	3481	1.470372470557	0
12	3482	1.470372470557	1
12	3507	1.474656470556	0
12	3508	1.474656470556	1
12	3535	1.478940470555	0
12	3536	1.478940470555	1
12	3554	1.483224470554	0
12	3555	1.483224470554	1
12	3577	1.487508470553	0
12	3578	1.487508470553	1
12	3586	1.491792470552	0
12	3587	1.491792470552	1
12	3611	1.496076470551	0
12	3612	1.496076470551	1
12	3635	1.50036047055	0
12	3636	1.50036047055	1
12	3659	1.504644470549	0
12	3660	1.504644470549	1
12	3682	1.508928470548	0
12	3683	1.508928470548	1
12	3710	1.513212470547	0
12	3711	1.513212470547	1
12	3734	1.517496470546	0